 Entering Gaussian System, Link 0=g16
 Initial command:
 /cm/shared/uniol/sw/SYSTEM/gaussian/g16.c01/g16/l1.exe "/fs/dss/home/toxo0610/Anthracen/04/Gau-1120963.inp" -scrdir="/fs/dss/home/toxo0610/Anthracen/04/"
 Entering Link 1 = /cm/shared/uniol/sw/SYSTEM/gaussian/g16.c01/g16/l1.exe PID=   1120964.
  
 Copyright (c) 1988-2019, Gaussian, Inc.  All Rights Reserved.
  
 This is part of the Gaussian(R) 16 program.  It is based on
 the Gaussian(R) 09 system (copyright 2009, Gaussian, Inc.),
 the Gaussian(R) 03 system (copyright 2003, Gaussian, Inc.),
 the Gaussian(R) 98 system (copyright 1998, Gaussian, Inc.),
 the Gaussian(R) 94 system (copyright 1995, Gaussian, Inc.),
 the Gaussian 92(TM) system (copyright 1992, Gaussian, Inc.),
 the Gaussian 90(TM) system (copyright 1990, Gaussian, Inc.),
 the Gaussian 88(TM) system (copyright 1988, Gaussian, Inc.),
 the Gaussian 86(TM) system (copyright 1986, Carnegie Mellon
 University), and the Gaussian 82(TM) system (copyright 1983,
 Carnegie Mellon University). Gaussian is a federally registered
 trademark of Gaussian, Inc.
  
 This software contains proprietary and confidential information,
 including trade secrets, belonging to Gaussian, Inc.
  
 This software is provided under written license and may be
 used, copied, transmitted, or stored only in accord with that
 written license.
  
 The following legend is applicable only to US Government
 contracts under FAR:
  
                    RESTRICTED RIGHTS LEGEND
  
 Use, reproduction and disclosure by the US Government is
 subject to restrictions as set forth in subparagraphs (a)
 and (c) of the Commercial Computer Software - Restricted
 Rights clause in FAR 52.227-19.
  
 Gaussian, Inc.
 340 Quinnipiac St., Bldg. 40, Wallingford CT 06492
  
  
 ---------------------------------------------------------------
 Warning -- This program may not be used in any manner that
 competes with the business of Gaussian, Inc. or will provide
 assistance to any competitor of Gaussian, Inc.  The licensee
 of this program is prohibited from giving any competitor of
 Gaussian, Inc. access to this program.  By using this program,
 the user acknowledges that Gaussian, Inc. is engaged in the
 business of creating and licensing software in the field of
 computational chemistry and represents and warrants to the
 licensee that it is not a competitor of Gaussian, Inc. and that
 it will not use this program in any manner prohibited above.
 ---------------------------------------------------------------
  

 Cite this work as:
 Gaussian 16, Revision C.01,
 M. J. Frisch, G. W. Trucks, H. B. Schlegel, G. E. Scuseria, 
 M. A. Robb, J. R. Cheeseman, G. Scalmani, V. Barone, 
 G. A. Petersson, H. Nakatsuji, X. Li, M. Caricato, A. V. Marenich, 
 J. Bloino, B. G. Janesko, R. Gomperts, B. Mennucci, H. P. Hratchian, 
 J. V. Ortiz, A. F. Izmaylov, J. L. Sonnenberg, D. Williams-Young, 
 F. Ding, F. Lipparini, F. Egidi, J. Goings, B. Peng, A. Petrone, 
 T. Henderson, D. Ranasinghe, V. G. Zakrzewski, J. Gao, N. Rega, 
 G. Zheng, W. Liang, M. Hada, M. Ehara, K. Toyota, R. Fukuda, 
 J. Hasegawa, M. Ishida, T. Nakajima, Y. Honda, O. Kitao, H. Nakai, 
 T. Vreven, K. Throssell, J. A. Montgomery, Jr., J. E. Peralta, 
 F. Ogliaro, M. J. Bearpark, J. J. Heyd, E. N. Brothers, K. N. Kudin, 
 V. N. Staroverov, T. A. Keith, R. Kobayashi, J. Normand, 
 K. Raghavachari, A. P. Rendell, J. C. Burant, S. S. Iyengar, 
 J. Tomasi, M. Cossi, J. M. Millam, M. Klene, C. Adamo, R. Cammi, 
 J. W. Ochterski, R. L. Martin, K. Morokuma, O. Farkas, 
 J. B. Foresman, and D. J. Fox, Gaussian, Inc., Wallingford CT, 2019.
 
 ******************************************
 Gaussian 16:  ES64L-G16RevC.01  3-Jul-2019
                26-Dec-2024 
 ******************************************
 %NprocShared=16
 Will use up to   16 processors via shared memory.
 Default route: Test
 -------------------------------------------------------------------
 #p pbepbe/6-31+G** pop=regular scf=tight int=finegrid pop=Hirshfeld
 -------------------------------------------------------------------
 1/38=1,172=1/1;
 2/12=2,17=6,18=5,40=1/2;
 3/5=1,6=6,7=111,11=2,25=1,30=1,74=1009,75=-4/1,2,3;
 4//1;
 5/5=2,32=2,38=5/2;
 6/28=1,79=1/1;
 99/5=1,9=1/99;
 Leave Link    1 at Thu Dec 26 16:59:32 2024, MaxMem=           0 cpu:               4.3 elap:               0.5
 (Enter /cm/shared/uniol/sw/SYSTEM/gaussian/g16.c01/g16/l101.exe)
 --------------------
 orbitals calculation
 --------------------
 Symbolic Z-matrix:
 Charge =  0 Multiplicity = 1
 C                    -0.72696   1.23049   0. 
 C                     1.41146   0.        0. 
 H                     2.50801   0.        0. 
 C                     0.72695   1.23049   0. 
 C                     0.71492   3.67967   0. 
 H                     1.25395   4.63203   0. 
 C                    -0.71492   3.67967   0. 
 H                    -1.25394   4.63203   0. 
 C                     1.4138    2.48863   0. 
 H                     2.50928   2.4864    0. 
 C                    -1.4138    2.48863   0. 
 H                     2.50928  -2.4864    0. 
 C                     0.72696  -1.23049   0. 
 C                    -1.41146  0.         0. 
 H                    -2.50801  0.         0. 
 C                    -0.72695  -1.23049   0. 
 C                    -0.71492  -3.67967   0. 
 H                    -1.25395  -4.63203   0. 
 C                     0.71492  -3.67967   0. 
 H                     1.25394  -4.63203   0. 
 C                    -1.4138   -2.48863   0. 
 H                    -2.50928  -2.4864    0. 
 C                     1.4138   -2.48863   0. 
 H                    -2.50928   2.4864    0. 
 
 ITRead=  0  0  0  0  0  0  0  0  0  0  0  0  0  0  0  0  0  0  0  0
 ITRead=  0  0  0  0
 MicOpt= -1 -1 -1 -1 -1 -1 -1 -1 -1 -1 -1 -1 -1 -1 -1 -1 -1 -1 -1 -1
 MicOpt= -1 -1 -1 -1
 NAtoms=     24 NQM=       24 NQMF=       0 NMMI=      0 NMMIF=      0
                NMic=       0 NMicF=      0.
                    Isotopes and Nuclear Properties:
 (Nuclear quadrupole moments (NQMom) in fm**2, nuclear magnetic moments (NMagM)
  in nuclear magnetons)

  Atom         1           2           3           4           5           6           7           8           9          10
 IAtWgt=          12          12           1          12          12           1          12           1          12           1
 AtmWgt=  12.0000000  12.0000000   1.0078250  12.0000000  12.0000000   1.0078250  12.0000000   1.0078250  12.0000000   1.0078250
 NucSpn=           0           0           1           0           0           1           0           1           0           1
 AtZEff=  -0.0000000  -0.0000000  -0.0000000  -0.0000000  -0.0000000  -0.0000000  -0.0000000  -0.0000000  -0.0000000  -0.0000000
 NQMom=    0.0000000   0.0000000   0.0000000   0.0000000   0.0000000   0.0000000   0.0000000   0.0000000   0.0000000   0.0000000
 NMagM=    0.0000000   0.0000000   2.7928460   0.0000000   0.0000000   2.7928460   0.0000000   2.7928460   0.0000000   2.7928460
 AtZNuc=   6.0000000   6.0000000   1.0000000   6.0000000   6.0000000   1.0000000   6.0000000   1.0000000   6.0000000   1.0000000

  Atom        11          12          13          14          15          16          17          18          19          20
 IAtWgt=          12           1          12          12           1          12          12           1          12           1
 AtmWgt=  12.0000000   1.0078250  12.0000000  12.0000000   1.0078250  12.0000000  12.0000000   1.0078250  12.0000000   1.0078250
 NucSpn=           0           1           0           0           1           0           0           1           0           1
 AtZEff=  -0.0000000  -0.0000000  -0.0000000  -0.0000000  -0.0000000  -0.0000000  -0.0000000  -0.0000000  -0.0000000  -0.0000000
 NQMom=    0.0000000   0.0000000   0.0000000   0.0000000   0.0000000   0.0000000   0.0000000   0.0000000   0.0000000   0.0000000
 NMagM=    0.0000000   2.7928460   0.0000000   0.0000000   2.7928460   0.0000000   0.0000000   2.7928460   0.0000000   2.7928460
 AtZNuc=   6.0000000   1.0000000   6.0000000   6.0000000   1.0000000   6.0000000   6.0000000   1.0000000   6.0000000   1.0000000

  Atom        21          22          23          24
 IAtWgt=          12           1          12           1
 AtmWgt=  12.0000000   1.0078250  12.0000000   1.0078250
 NucSpn=           0           1           0           1
 AtZEff=  -0.0000000  -0.0000000  -0.0000000  -0.0000000
 NQMom=    0.0000000   0.0000000   0.0000000   0.0000000
 NMagM=    0.0000000   2.7928460   0.0000000   2.7928460
 AtZNuc=   6.0000000   1.0000000   6.0000000   1.0000000
 Leave Link  101 at Thu Dec 26 16:59:33 2024, MaxMem=   104857600 cpu:               1.1 elap:               0.1
 (Enter /cm/shared/uniol/sw/SYSTEM/gaussian/g16.c01/g16/l202.exe)
                          Input orientation:                          
 ---------------------------------------------------------------------
 Center     Atomic      Atomic             Coordinates (Angstroms)
 Number     Number       Type             X           Y           Z
 ---------------------------------------------------------------------
      1          6           0       -0.726956    1.230488    0.000000
      2          6           0        1.411458    0.000001    0.000000
      3          1           0        2.508008    0.000003    0.000000
      4          6           0        0.726954    1.230487    0.000000
      5          6           0        0.714918    3.679673    0.000000
      6          1           0        1.253945    4.632034    0.000000
      7          6           0       -0.714916    3.679672    0.000000
      8          1           0       -1.253943    4.632034    0.000000
      9          6           0        1.413800    2.488632    0.000000
     10          1           0        2.509279    2.486396    0.000000
     11          6           0       -1.413800    2.488633    0.000000
     12          1           0        2.509279   -2.486402    0.000000
     13          6           0        0.726956   -1.230488    0.000000
     14          6           0       -1.411458   -0.000001    0.000000
     15          1           0       -2.508008   -0.000003    0.000000
     16          6           0       -0.726954   -1.230487    0.000000
     17          6           0       -0.714918   -3.679673    0.000000
     18          1           0       -1.253945   -4.632034    0.000000
     19          6           0        0.714916   -3.679672    0.000000
     20          1           0        1.253943   -4.632034    0.000000
     21          6           0       -1.413800   -2.488632    0.000000
     22          1           0       -2.509279   -2.486396    0.000000
     23          6           0        1.413800   -2.488633    0.000000
     24          1           0       -2.509279    2.486402    0.000000
 ---------------------------------------------------------------------
                    Distance matrix (angstroms):
                    1          2          3          4          5
     1  C    0.000000
     2  C    2.467167   0.000000
     3  H    3.461082   1.096550   0.000000
     4  C    1.453910   1.408063   2.164773   0.000000
     5  C    2.842096   3.745017   4.093305   2.449216   0.000000
     6  H    3.936303   4.634710   4.798790   3.442127   1.094322
     7  C    2.449214   4.249876   4.891544   2.842094   1.429834
     8  H    3.442126   5.344164   5.967243   3.936302   2.187100
     9  C    2.483095   2.488632   2.718559   1.433418   1.380947
    10  H    3.471386   2.717972   2.486393   2.180365   2.154911
    11  C    1.433417   3.765020   4.644767   2.483095   2.439266
    12  H    4.928335   2.717979   2.486405   4.122129   6.421854
    13  C    2.858367   1.408065   2.164776   2.460975   4.910176
    14  C    1.408065   2.822916   3.919466   2.467166   4.249879
    15  H    2.164776   3.919466   5.016016   3.461081   4.891551
    16  C    2.460975   2.467166   3.461081   2.858363   5.117486
    17  C    4.910176   4.249879   4.891551   5.117486   7.496960
    18  H    5.886160   5.344167   5.967249   6.188143   8.541715
    19  C    5.117486   3.745019   4.093310   4.910174   7.359345
    20  H    6.188144   4.634712   4.798796   5.886159   8.329167
    21  C    3.782011   3.765020   4.644769   4.291232   6.525291
    22  H    4.122123   4.642666   5.599585   4.928329   6.958150
    23  C    4.291235   2.488635   2.718566   3.782012   6.207772
    24  H    2.180366   4.642668   5.599585   3.471387   3.437927
                    6          7          8          9         10
     6  H    0.000000
     7  C    2.187100   0.000000
     8  H    2.507888   1.094323   0.000000
     9  C    2.149355   2.439264   3.422137   0.000000
    10  H    2.485885   3.437927   4.331928   1.095481   0.000000
    11  C    3.422138   1.380946   2.149354   2.827600   3.923080
    12  H    7.228277   6.958154   8.051954   5.094216   4.972798
    13  C    5.886160   5.117486   6.188144   3.782011   4.122123
    14  C    5.344167   3.745019   4.634712   3.765020   4.642666
    15  H    5.967249   4.093310   4.798796   4.644769   5.599585
    16  C    6.188143   4.910174   5.886159   4.291232   4.928329
    17  C    8.541715   7.359345   8.329167   6.525291   6.958150
    18  H    9.597524   8.329166   9.264068   7.603996   8.051950
    19  C    8.329166   7.496957   8.541713   6.207770   6.421848
    20  H    9.264068   8.541713   9.597523   7.122460   7.228272
    21  C    7.603996   6.207770   7.122460   5.724376   6.335728
    22  H    8.051950   6.421848   7.228272   6.335728   7.065025
    23  C    7.122461   6.525291   7.603996   4.977265   5.094211
    24  H    4.331927   2.154909   2.485881   3.923080   5.018558
                   11         12         13         14         15
    11  C    0.000000
    12  H    6.335734   0.000000
    13  C    4.291235   2.180366   0.000000
    14  C    2.488635   4.642668   2.467167   0.000000
    15  H    2.718566   5.599585   3.461082   1.096550   0.000000
    16  C    3.782012   3.471387   1.453910   1.408063   2.164773
    17  C    6.207772   3.437927   2.842096   3.745017   4.093305
    18  H    7.122461   4.331927   3.936303   4.634710   4.798790
    19  C    6.525291   2.154909   2.449214   4.249876   4.891544
    20  H    7.603996   2.485881   3.442126   5.344164   5.967243
    21  C    4.977265   3.923080   2.483095   2.488632   2.718559
    22  H    5.094211   5.018558   3.471386   2.717972   2.486393
    23  C    5.724378   1.095481   1.433417   3.765020   4.644767
    24  H    1.095481   7.065034   4.928335   2.717979   2.486405
                   16         17         18         19         20
    16  C    0.000000
    17  C    2.449216   0.000000
    18  H    3.442127   1.094322   0.000000
    19  C    2.842094   1.429834   2.187100   0.000000
    20  H    3.936302   2.187100   2.507888   1.094323   0.000000
    21  C    1.433418   1.380947   2.149355   2.439264   3.422137
    22  H    2.180365   2.154911   2.485885   3.437927   4.331928
    23  C    2.483095   2.439266   3.422138   1.380946   2.149354
    24  H    4.122129   6.421854   7.228277   6.958154   8.051954
                   21         22         23         24
    21  C    0.000000
    22  H    1.095481   0.000000
    23  C    2.827600   3.923080   0.000000
    24  H    5.094216   4.972798   6.335734   0.000000
 Stoichiometry    C14H10
 Framework group  C2H[SGH(C14H10)]
 Deg. of freedom    23
 Full point group                 C2H     NOp   4
 Largest Abelian subgroup         C2H     NOp   4
 Largest concise Abelian subgroup C2      NOp   2
                         Standard orientation:                         
 ---------------------------------------------------------------------
 Center     Atomic      Atomic             Coordinates (Angstroms)
 Number     Number       Type             X           Y           Z
 ---------------------------------------------------------------------
      1          6           0        1.230489    0.726955    0.000000
      2          6           0        0.000000   -1.411458    0.000000
      3          1           0        0.000001   -2.508008    0.000000
      4          6           0        1.230486   -0.726955    0.000000
      5          6           0        3.679672   -0.714921    0.000000
      6          1           0        4.632033   -1.253948    0.000000
      7          6           0        3.679672    0.714913    0.000000
      8          1           0        4.632035    1.253940    0.000000
      9          6           0        2.488631   -1.413802    0.000000
     10          1           0        2.486394   -2.509281    0.000000
     11          6           0        2.488634    1.413798    0.000000
     12          1           0       -2.486404   -2.509277    0.000000
     13          6           0       -1.230489   -0.726955    0.000000
     14          6           0       -0.000000    1.411458    0.000000
     15          1           0       -0.000001    2.508008    0.000000
     16          6           0       -1.230486    0.726955    0.000000
     17          6           0       -3.679672    0.714921    0.000000
     18          1           0       -4.632033    1.253948    0.000000
     19          6           0       -3.679672   -0.714913    0.000000
     20          1           0       -4.632035   -1.253940    0.000000
     21          6           0       -2.488631    1.413802    0.000000
     22          1           0       -2.486394    2.509281    0.000000
     23          6           0       -2.488634   -1.413798    0.000000
     24          1           0        2.486404    2.509277    0.000000
 ---------------------------------------------------------------------
 Rotational constants (GHZ):           2.1229353           0.4467277           0.3690655
 Leave Link  202 at Thu Dec 26 16:59:33 2024, MaxMem=   104857600 cpu:               1.8 elap:               0.3
 (Enter /cm/shared/uniol/sw/SYSTEM/gaussian/g16.c01/g16/l301.exe)
 Standard basis: 6-31+G(d,p) (6D, 7F)
 Ernie: Thresh=  0.10000D-02 Tol=  0.10000D-05 Strict=F.
 There are   118 symmetry adapted cartesian basis functions of AG  symmetry.
 There are    40 symmetry adapted cartesian basis functions of BG  symmetry.
 There are    40 symmetry adapted cartesian basis functions of AU  symmetry.
 There are   118 symmetry adapted cartesian basis functions of BU  symmetry.
 There are   118 symmetry adapted basis functions of AG  symmetry.
 There are    40 symmetry adapted basis functions of BG  symmetry.
 There are    40 symmetry adapted basis functions of AU  symmetry.
 There are   118 symmetry adapted basis functions of BU  symmetry.
   316 basis functions,   518 primitive gaussians,   316 cartesian basis functions
    47 alpha electrons       47 beta electrons
       nuclear repulsion energy       761.3683105068 Hartrees.
 IExCor= 1009 DFT=T Ex=PBE Corr=PBE ExCW=0 ScaHFX=  0.000000
 ScaDFX=  1.000000  1.000000  1.000000  1.000000 ScalE2=  1.000000  1.000000
 IRadAn=      4 IRanWt=     -1 IRanGd=            0 ICorTp=0 IEmpDi=  4
 NAtoms=   24 NActive=   24 NUniq=   12 SFac= 4.00D+00 NAtFMM=   60 NAOKFM=F Big=F
 Integral buffers will be    131072 words long.
 Raffenetti 2 integral format.
 Two-electron integral symmetry is turned on.
 Leave Link  301 at Thu Dec 26 16:59:33 2024, MaxMem=   104857600 cpu:               0.6 elap:               0.1
 (Enter /cm/shared/uniol/sw/SYSTEM/gaussian/g16.c01/g16/l302.exe)
 NPDir=0 NMtPBC=     1 NCelOv=     1 NCel=       1 NClECP=     1 NCelD=      1
         NCelK=      1 NCelE2=     1 NClLst=     1 CellRange=     0.0.
 One-electron integrals computed using PRISM.
 One-electron integral symmetry used in STVInt
 NBasis=   316 RedAO= T EigKep=  1.13D-06  NBF=   118    40    40   118
 NBsUse=   311 1.00D-06 EigRej=  9.78D-07 NBFU=   115    40    40   116
 Precomputing XC quadrature grid using
 IXCGrd= 4 IRadAn=           4 IRanWt=          -1 IRanGd=           0 AccXCQ= 0.00D+00.
 Generated NRdTot=       0 NPtTot=           0 NUsed=           0 NTot=          32
 NSgBfM=   315   315   315   315   315 MxSgAt=    24 MxSgA2=    24.
 Leave Link  302 at Thu Dec 26 16:59:34 2024, MaxMem=   104857600 cpu:              11.5 elap:               0.9
 (Enter /cm/shared/uniol/sw/SYSTEM/gaussian/g16.c01/g16/l303.exe)
 DipDrv:  MaxL=1.
 Leave Link  303 at Thu Dec 26 16:59:34 2024, MaxMem=   104857600 cpu:               1.2 elap:               0.2
 (Enter /cm/shared/uniol/sw/SYSTEM/gaussian/g16.c01/g16/l401.exe)
 ExpMin= 4.38D-02 ExpMax= 3.05D+03 ExpMxC= 4.57D+02 IAcc=2 IRadAn=         4 AccDes= 0.00D+00
 Harris functional with IExCor= 1009 and IRadAn=       4 diagonalized for initial guess.
 HarFok:  IExCor= 1009 AccDes= 0.00D+00 IRadAn=         4 IDoV= 1 UseB2=F ITyADJ=14
 ICtDFT=  3500011 ScaDFX=  1.000000  1.000000  1.000000  1.000000
 FoFCou: FMM=F IPFlag=           0 FMFlag=      100000 FMFlg1=           0
         NFxFlg=           0 DoJE=T BraDBF=F KetDBF=T FulRan=T
         wScrn=  0.000000 ICntrl=       500 IOpCl=  0 I1Cent=   200000004 NGrid=           0
         NMat0=    1 NMatS0=      1 NMatT0=    0 NMatD0=    1 NMtDS0=    0 NMtDT0=    0
 Petite list used in FoFCou.
 Harris En= -539.063815861942    
 JPrj=0 DoOrth=F DoCkMO=F.
 Initial guess orbital symmetries:
       Occupied  (BU) (AG) (AG) (BU) (BU) (AG) (BU) (AG) (BU) (AG)
                 (BU) (AG) (AG) (BU) (AG) (BU) (AG) (BU) (AG) (BU)
                 (BU) (AG) (AG) (AG) (BU) (BU) (BU) (AG) (AG) (AG)
                 (BU) (BU) (BU) (AG) (BU) (AG) (AU) (BU) (AG) (BG)
                 (BU) (AG) (AU) (BG) (AU) (BG) (BG)
       Virtual   (AU) (AU) (BG) (AU) (BG) (AG) (BU) (BU) (AU) (AG)
                 (AG) (AG) (BU) (BU) (BG) (AG) (AU) (AG) (BU) (BG)
                 (BU) (BG) (AG) (AU) (AU) (AG) (BU) (BU) (AG) (BU)
                 (AG) (BG) (AU) (BU) (AG) (BU) (BG) (BU) (AG) (AG)
                 (BU) (AU) (BU) (BG) (BU) (AG) (AU) (AG) (BU) (AG)
                 (BU) (AG) (BG) (BU) (AG) (AG) (BU) (BG) (BU) (AG)
                 (AG) (AG) (BU) (AU) (BU) (BU) (AG) (BU) (AG) (AG)
                 (BU) (BU) (AG) (BU) (AG) (AG) (BU) (BU) (AG) (AG)
                 (BU) (BU) (AG) (BU) (BU) (AU) (AG) (BG) (AG) (AU)
                 (AG) (BU) (BU) (AG) (BG) (AU) (BU) (AU) (AG) (BG)
                 (BG) (AG) (BU) (AU) (AU) (BU) (AG) (BG) (BG) (AU)
                 (BU) (AG) (BG) (BU) (AG) (AG) (BU) (AG) (BU) (AG)
                 (BU) (AG) (BU) (BU) (AG) (AG) (BU) (AG) (BU) (AG)
                 (BU) (BU) (BG) (AU) (AG) (BU) (BU) (AG) (BG) (BU)
                 (AU) (AU) (BG) (BG) (AG) (AU) (BU) (AU) (BG) (BG)
                 (BU) (AU) (AG) (AG) (BU) (AG) (AG) (AG) (BU) (AG)
                 (BU) (AG) (BU) (AU) (BG) (AU) (BU) (BU) (AG) (AG)
                 (AG) (BU) (BU) (BU) (AG) (BU) (BG) (AG) (AG) (BU)
                 (BG) (AU) (BU) (AU) (AG) (AG) (BU) (BG) (BG) (AU)
                 (BU) (BG) (AU) (BG) (AG) (BU) (AG) (AG) (AU) (BG)
                 (BU) (AU) (BU) (BG) (AG) (AG) (BG) (BU) (BU) (AU)
                 (AU) (AG) (BG) (BU) (AU) (AU) (AG) (BU) (AG) (BU)
                 (BG) (AG) (BG) (BU) (AU) (AG) (AG) (BU) (AG) (AG)
                 (BU) (BU) (AG) (BU) (AG) (BU) (BU) (AG) (AG) (BU)
                 (BU) (AG) (BU) (AG) (AG) (AG) (BU) (BU) (AG) (BU)
                 (AG) (BU) (AG) (BU) (BU) (AG) (BU) (AG) (AG) (BU)
                 (AG) (BU) (AG) (BU)
 The electronic state of the initial guess is 1-AG.
 Leave Link  401 at Thu Dec 26 16:59:34 2024, MaxMem=   104857600 cpu:               2.8 elap:               0.3
 (Enter /cm/shared/uniol/sw/SYSTEM/gaussian/g16.c01/g16/l502.exe)
 Integral symmetry usage will be decided dynamically.
 Closed shell SCF:
 Using DIIS extrapolation, IDIIS=  1040.
 NGot=   104857600 LenX=   104646898 LenY=   104546601
 Requested convergence on RMS density matrix=1.00D-08 within 128 cycles.
 Requested convergence on MAX density matrix=1.00D-06.
 Requested convergence on             energy=1.00D-06.
 No special actions if energy rises.
 Fock matrices will be formed incrementally for  20 cycles.

 Cycle   1  Pass 1  IDiag  1:
 FoFJK:  IHMeth= 1 ICntrl=     500 DoSepK=F KAlg= 0 I1Cent=           0 FoldK=F
 IRaf= 880000000 NMat=       1 IRICut=       1 DoRegI=T DoRafI=F ISym2E= 1 IDoP0=0 IntGTp=1.
 FoFCou: FMM=F IPFlag=           0 FMFlag=      100000 FMFlg1=           0
         NFxFlg=           0 DoJE=T BraDBF=F KetDBF=F FulRan=T
         wScrn=  0.000000 ICntrl=       500 IOpCl=  0 I1Cent=           0 NGrid=           0
         NMat0=    1 NMatS0=      1 NMatT0=    0 NMatD0=    1 NMtDS0=    0 NMtDT0=    0
 Petite list used in FoFCou.
 E= -538.649723498359    
 DIIS: error= 3.41D-02 at cycle   1 NSaved=   1.
 NSaved= 1 IEnMin= 1 EnMin= -538.649723498359     IErMin= 1 ErrMin= 3.41D-02
 ErrMax= 3.41D-02  0.00D+00 EMaxC= 1.00D-01 BMatC= 1.78D-01 BMatP= 1.78D-01
 IDIUse=3 WtCom= 6.59D-01 WtEn= 3.41D-01
 Coeff-Com:  0.100D+01
 Coeff-En:   0.100D+01
 Coeff:      0.100D+01
 Gap=     0.083 Goal=   None    Shift=    0.000
 GapD=    0.083 DampG=0.500 DampE=0.500 DampFc=0.2500 IDamp=-1.
 Damping current iteration by 2.50D-01
 RMSDP=1.71D-01 MaxDP=7.01D+00              OVMax= 1.88D-01

 Cycle   2  Pass 1  IDiag  1:
 RMSU=  2.32D-02    CP:  1.47D+00
 E= -538.728741508366     Delta-E=       -0.079018010007 Rises=F Damp=T
 DIIS: error= 1.61D-02 at cycle   2 NSaved=   2.
 NSaved= 2 IEnMin= 2 EnMin= -538.728741508366     IErMin= 2 ErrMin= 1.61D-02
 ErrMax= 1.61D-02  0.00D+00 EMaxC= 1.00D-01 BMatC= 4.03D-02 BMatP= 1.78D-01
 IDIUse=3 WtCom= 8.39D-01 WtEn= 1.61D-01
 Coeff-Com: -0.759D+00 0.176D+01
 Coeff-En:   0.000D+00 0.100D+01
 Coeff:     -0.637D+00 0.164D+01
 Gap=     0.086 Goal=   None    Shift=    0.000
 RMSDP=8.25D-03 MaxDP=4.55D-01 DE=-7.90D-02 OVMax= 1.09D-01

 Cycle   3  Pass 1  IDiag  1:
 RMSU=  4.81D-03    CP:  1.39D+00  1.12D+00
 E= -538.863865223215     Delta-E=       -0.135123714849 Rises=F Damp=F
 DIIS: error= 3.53D-03 at cycle   3 NSaved=   3.
 NSaved= 3 IEnMin= 3 EnMin= -538.863865223215     IErMin= 3 ErrMin= 3.53D-03
 ErrMax= 3.53D-03  0.00D+00 EMaxC= 1.00D-01 BMatC= 3.29D-03 BMatP= 4.03D-02
 IDIUse=3 WtCom= 9.65D-01 WtEn= 3.53D-02
 Coeff-Com: -0.259D+00 0.609D+00 0.650D+00
 Coeff-En:   0.000D+00 0.000D+00 0.100D+01
 Coeff:     -0.250D+00 0.588D+00 0.662D+00
 Gap=     0.085 Goal=   None    Shift=    0.000
 RMSDP=1.40D-03 MaxDP=3.75D-02 DE=-1.35D-01 OVMax= 2.84D-02

 Cycle   4  Pass 1  IDiag  1:
 RMSU=  1.36D-03    CP:  1.39D+00  1.11D+00  9.36D-01
 E= -538.864893260617     Delta-E=       -0.001028037402 Rises=F Damp=F
 DIIS: error= 3.86D-03 at cycle   4 NSaved=   4.
 NSaved= 4 IEnMin= 4 EnMin= -538.864893260617     IErMin= 3 ErrMin= 3.53D-03
 ErrMax= 3.86D-03  0.00D+00 EMaxC= 1.00D-01 BMatC= 2.25D-03 BMatP= 3.29D-03
 IDIUse=3 WtCom= 9.61D-01 WtEn= 3.86D-02
 Coeff-Com: -0.919D-01 0.209D+00 0.440D+00 0.442D+00
 Coeff-En:   0.000D+00 0.000D+00 0.419D+00 0.581D+00
 Coeff:     -0.883D-01 0.201D+00 0.440D+00 0.448D+00
 Gap=     0.085 Goal=   None    Shift=    0.000
 RMSDP=4.51D-04 MaxDP=1.02D-02 DE=-1.03D-03 OVMax= 2.09D-02

 Cycle   5  Pass 1  IDiag  1:
 RMSU=  4.14D-04    CP:  1.39D+00  1.11D+00  9.33D-01  8.99D-01
 E= -538.866997941967     Delta-E=       -0.002104681350 Rises=F Damp=F
 DIIS: error= 1.42D-03 at cycle   5 NSaved=   5.
 NSaved= 5 IEnMin= 5 EnMin= -538.866997941967     IErMin= 5 ErrMin= 1.42D-03
 ErrMax= 1.42D-03  0.00D+00 EMaxC= 1.00D-01 BMatC= 1.38D-04 BMatP= 2.25D-03
 IDIUse=3 WtCom= 9.86D-01 WtEn= 1.42D-02
 Coeff-Com: -0.320D-01 0.666D-01 0.177D+00 0.255D+00 0.533D+00
 Coeff-En:   0.000D+00 0.000D+00 0.000D+00 0.266D-01 0.973D+00
 Coeff:     -0.316D-01 0.657D-01 0.175D+00 0.252D+00 0.539D+00
 Gap=     0.085 Goal=   None    Shift=    0.000
 RMSDP=1.03D-03 MaxDP=3.88D-02 DE=-2.10D-03 OVMax= 7.61D-03

 Cycle   6  Pass 1  IDiag  1:
 RMSU=  1.49D-04    CP:  1.40D+00  1.13D+00  9.32D-01  7.88D-01  4.87D-01
 E= -538.867069022513     Delta-E=       -0.000071080546 Rises=F Damp=F
 DIIS: error= 9.73D-04 at cycle   6 NSaved=   6.
 NSaved= 6 IEnMin= 6 EnMin= -538.867069022513     IErMin= 6 ErrMin= 9.73D-04
 ErrMax= 9.73D-04  0.00D+00 EMaxC= 1.00D-01 BMatC= 8.15D-05 BMatP= 1.38D-04
 IDIUse=3 WtCom= 9.90D-01 WtEn= 9.73D-03
 Coeff-Com: -0.115D-01 0.208D-01 0.793D-01 0.143D+00 0.435D+00 0.333D+00
 Coeff-En:   0.000D+00 0.000D+00 0.000D+00 0.000D+00 0.392D+00 0.608D+00
 Coeff:     -0.113D-01 0.206D-01 0.786D-01 0.141D+00 0.435D+00 0.336D+00
 Gap=     0.085 Goal=   None    Shift=    0.000
 RMSDP=1.88D-04 MaxDP=7.15D-03 DE=-7.11D-05 OVMax= 3.53D-03

 Cycle   7  Pass 1  IDiag  1:
 RMSU=  3.83D-05    CP:  1.40D+00  1.13D+00  9.36D-01  8.23D-01  6.69D-01
                    CP:  5.27D-01
 E= -538.867166209495     Delta-E=       -0.000097186982 Rises=F Damp=F
 DIIS: error= 2.06D-05 at cycle   7 NSaved=   7.
 NSaved= 7 IEnMin= 7 EnMin= -538.867166209495     IErMin= 7 ErrMin= 2.06D-05
 ErrMax= 2.06D-05  0.00D+00 EMaxC= 1.00D-01 BMatC= 1.30D-07 BMatP= 8.15D-05
 IDIUse=1 WtCom= 1.00D+00 WtEn= 0.00D+00
 Coeff-Com: -0.228D-02 0.368D-02 0.167D-01 0.313D-01 0.109D+00 0.101D+00
 Coeff-Com:  0.741D+00
 Coeff:     -0.228D-02 0.368D-02 0.167D-01 0.313D-01 0.109D+00 0.101D+00
 Coeff:      0.741D+00
 Gap=     0.085 Goal=   None    Shift=    0.000
 RMSDP=1.31D-05 MaxDP=4.10D-04 DE=-9.72D-05 OVMax= 8.41D-05

 Cycle   8  Pass 1  IDiag  1:
 RMSU=  8.72D-06    CP:  1.40D+00  1.13D+00  9.37D-01  8.25D-01  6.66D-01
                    CP:  5.27D-01  9.40D-01
 E= -538.867166348946     Delta-E=       -0.000000139451 Rises=F Damp=F
 DIIS: error= 3.99D-06 at cycle   8 NSaved=   8.
 NSaved= 8 IEnMin= 8 EnMin= -538.867166348946     IErMin= 8 ErrMin= 3.99D-06
 ErrMax= 3.99D-06  0.00D+00 EMaxC= 1.00D-01 BMatC= 3.16D-09 BMatP= 1.30D-07
 IDIUse=1 WtCom= 1.00D+00 WtEn= 0.00D+00
 Coeff-Com: -0.446D-03 0.631D-03 0.257D-02 0.525D-02 0.188D-01 0.185D-01
 Coeff-Com:  0.184D+00 0.771D+00
 Coeff:     -0.446D-03 0.631D-03 0.257D-02 0.525D-02 0.188D-01 0.185D-01
 Coeff:      0.184D+00 0.771D+00
 Gap=     0.085 Goal=   None    Shift=    0.000
 RMSDP=4.34D-06 MaxDP=1.57D-04 DE=-1.39D-07 OVMax= 1.52D-05

 Cycle   9  Pass 1  IDiag  1:
 RMSU=  1.33D-06    CP:  1.40D+00  1.13D+00  9.37D-01  8.25D-01  6.64D-01
                    CP:  5.27D-01  9.45D-01  9.81D-01
 E= -538.867166351602     Delta-E=       -0.000000002657 Rises=F Damp=F
 DIIS: error= 1.87D-06 at cycle   9 NSaved=   9.
 NSaved= 9 IEnMin= 9 EnMin= -538.867166351602     IErMin= 9 ErrMin= 1.87D-06
 ErrMax= 1.87D-06  0.00D+00 EMaxC= 1.00D-01 BMatC= 6.38D-10 BMatP= 3.16D-09
 IDIUse=1 WtCom= 1.00D+00 WtEn= 0.00D+00
 Coeff-Com: -0.105D-03 0.127D-03 0.267D-03 0.715D-03 0.273D-02 0.237D-02
 Coeff-Com:  0.392D-01 0.343D+00 0.612D+00
 Coeff:     -0.105D-03 0.127D-03 0.267D-03 0.715D-03 0.273D-02 0.237D-02
 Coeff:      0.392D-01 0.343D+00 0.612D+00
 Gap=     0.085 Goal=   None    Shift=    0.000
 RMSDP=1.31D-06 MaxDP=6.23D-05 DE=-2.66D-09 OVMax= 8.19D-06

 Cycle  10  Pass 1  IDiag  1:
 RMSU=  2.47D-07    CP:  1.40D+00  1.13D+00  9.37D-01  8.25D-01  6.65D-01
                    CP:  5.27D-01  9.46D-01  9.94D-01  7.58D-01
 E= -538.867166352032     Delta-E=       -0.000000000429 Rises=F Damp=F
 DIIS: error= 1.04D-06 at cycle  10 NSaved=  10.
 NSaved=10 IEnMin=10 EnMin= -538.867166352032     IErMin=10 ErrMin= 1.04D-06
 ErrMax= 1.04D-06  0.00D+00 EMaxC= 1.00D-01 BMatC= 2.22D-10 BMatP= 6.38D-10
 IDIUse=1 WtCom= 1.00D+00 WtEn= 0.00D+00
 Coeff-Com: -0.187D-04 0.110D-04-0.145D-03-0.178D-03-0.507D-03-0.848D-03
 Coeff-Com:  0.248D-02 0.130D+00 0.419D+00 0.450D+00
 Coeff:     -0.187D-04 0.110D-04-0.145D-03-0.178D-03-0.507D-03-0.848D-03
 Coeff:      0.248D-02 0.130D+00 0.419D+00 0.450D+00
 Gap=     0.085 Goal=   None    Shift=    0.000
 RMSDP=3.84D-07 MaxDP=1.76D-05 DE=-4.29D-10 OVMax= 4.22D-06

 Cycle  11  Pass 1  IDiag  1:
 RMSU=  6.22D-08    CP:  1.40D+00  1.13D+00  9.37D-01  8.25D-01  6.65D-01
                    CP:  5.27D-01  9.48D-01  9.99D-01  7.65D-01  5.12D-01
 E= -538.867166352262     Delta-E=       -0.000000000231 Rises=F Damp=F
 DIIS: error= 9.93D-08 at cycle  11 NSaved=  11.
 NSaved=11 IEnMin=11 EnMin= -538.867166352262     IErMin=11 ErrMin= 9.93D-08
 ErrMax= 9.93D-08  0.00D+00 EMaxC= 1.00D-01 BMatC= 9.90D-13 BMatP= 2.22D-10
 IDIUse=1 WtCom= 1.00D+00 WtEn= 0.00D+00
 Coeff-Com: -0.460D-05 0.246D-05-0.507D-04-0.694D-04-0.220D-03-0.295D-03
 Coeff-Com: -0.313D-03 0.297D-01 0.109D+00 0.139D+00 0.723D+00
 Coeff:     -0.460D-05 0.246D-05-0.507D-04-0.694D-04-0.220D-03-0.295D-03
 Coeff:     -0.313D-03 0.297D-01 0.109D+00 0.139D+00 0.723D+00
 Gap=     0.085 Goal=   None    Shift=    0.000
 RMSDP=9.80D-08 MaxDP=3.89D-06 DE=-2.31D-10 OVMax= 3.61D-07

 Cycle  12  Pass 1  IDiag  1:
 RMSU=  1.32D-08    CP:  1.40D+00  1.13D+00  9.37D-01  8.25D-01  6.65D-01
                    CP:  5.27D-01  9.48D-01  9.99D-01  7.73D-01  5.43D-01
                    CP:  7.50D-01
 E= -538.867166352266     Delta-E=       -0.000000000004 Rises=F Damp=F
 DIIS: error= 9.73D-09 at cycle  12 NSaved=  12.
 NSaved=12 IEnMin=12 EnMin= -538.867166352266     IErMin=12 ErrMin= 9.73D-09
 ErrMax= 9.73D-09  0.00D+00 EMaxC= 1.00D-01 BMatC= 1.97D-14 BMatP= 9.90D-13
 IDIUse=1 WtCom= 1.00D+00 WtEn= 0.00D+00
 Coeff-Com: -0.551D-06 0.297D-06-0.810D-05-0.118D-04-0.398D-04-0.409D-04
 Coeff-Com: -0.170D-03 0.251D-02 0.109D-01 0.172D-01 0.161D+00 0.809D+00
 Coeff:     -0.551D-06 0.297D-06-0.810D-05-0.118D-04-0.398D-04-0.409D-04
 Coeff:     -0.170D-03 0.251D-02 0.109D-01 0.172D-01 0.161D+00 0.809D+00
 Gap=     0.085 Goal=   None    Shift=    0.000
 RMSDP=1.94D-08 MaxDP=8.69D-07 DE=-3.64D-12 OVMax= 7.31D-08

 Cycle  13  Pass 1  IDiag  1:
 RMSU=  2.31D-09    CP:  1.40D+00  1.13D+00  9.37D-01  8.25D-01  6.65D-01
                    CP:  5.27D-01  9.48D-01  9.99D-01  7.73D-01  5.40D-01
                    CP:  7.80D-01  8.40D-01
 E= -538.867166352267     Delta-E=       -0.000000000002 Rises=F Damp=F
 DIIS: error= 1.01D-08 at cycle  13 NSaved=  13.
 NSaved=13 IEnMin=13 EnMin= -538.867166352267     IErMin=12 ErrMin= 9.73D-09
 ErrMax= 1.01D-08  0.00D+00 EMaxC= 1.00D-01 BMatC= 8.89D-15 BMatP= 1.97D-14
 IDIUse=1 WtCom= 1.00D+00 WtEn= 0.00D+00
 Coeff-Com: -0.261D-06 0.143D-06-0.423D-05-0.627D-05-0.214D-04-0.205D-04
 Coeff-Com: -0.106D-03 0.966D-03 0.469D-02 0.818D-02 0.903D-01 0.542D+00
 Coeff-Com:  0.354D+00
 Coeff:     -0.261D-06 0.143D-06-0.423D-05-0.627D-05-0.214D-04-0.205D-04
 Coeff:     -0.106D-03 0.966D-03 0.469D-02 0.818D-02 0.903D-01 0.542D+00
 Coeff:      0.354D+00
 Gap=     0.085 Goal=   None    Shift=    0.000
 RMSDP=1.80D-09 MaxDP=6.68D-08 DE=-1.59D-12 OVMax= 6.20D-08

 SCF Done:  E(RPBE-PBE) =  -538.867166352     A.U. after   13 cycles
            NFock= 13  Conv=0.18D-08     -V/T= 2.0103
 KE= 5.333807050797D+02 PE=-2.770076538800D+03 EE= 9.364603568611D+02
 Leave Link  502 at Thu Dec 26 16:59:38 2024, MaxMem=   104857600 cpu:              55.5 elap:               3.6
 (Enter /cm/shared/uniol/sw/SYSTEM/gaussian/g16.c01/g16/l601.exe)
 Copying SCF densities to generalized density rwf, IOpCl= 0 IROHF=0.

 **********************************************************************

            Population analysis using the SCF Density.

 **********************************************************************

 Orbital symmetries:
       Occupied  (AG) (BU) (BU) (AG) (BU) (AG) (AG) (BU) (BU) (AG)
                 (BU) (AG) (BU) (AG) (AG) (BU) (AG) (BU) (AG) (BU)
                 (BU) (AG) (AG) (AG) (BU) (BU) (BU) (AG) (AG) (AG)
                 (BU) (BU) (AG) (BU) (BU) (AU) (AG) (BU) (BG) (BU)
                 (AG) (AG) (AU) (BG) (AU) (BG) (BG)
       Virtual   (AU) (AU) (BG) (AU) (AG) (BU) (BU) (BG) (AG) (AG)
                 (BU) (BU) (AG) (AU) (BG) (AG) (BG) (AG) (BU) (AU)
                 (AU) (AU) (BU) (BU) (BU) (AG) (BG) (BG) (AG) (AU)
                 (AG) (AG) (BU) (BU) (AG) (AU) (BU) (BG) (BG) (BU)
                 (AU) (AG) (AG) (BU) (BG) (BU) (AG) (BU) (AG) (BU)
                 (BG) (AG) (AG) (BU) (AG) (BU) (AU) (AG) (AG) (BU)
                 (BU) (AG) (BU) (AG) (BU) (AG) (AG) (BU) (BU) (BU)
                 (AG) (BU) (AG) (BU) (BU) (AG) (AG) (BU) (AG) (BU)
                 (AG) (BU) (AG) (BU) (BU) (AU) (AG) (BG) (AU) (AG)
                 (BG) (BU) (AG) (AU) (BU) (AG) (AU) (BG) (BG) (BU)
                 (AG) (BU) (AG) (AU) (AU) (BU) (AG) (BG) (BG) (AU)
                 (BU) (AG) (BG) (BU) (AG) (AG) (BU) (AG) (BU) (BU)
                 (AG) (AG) (BU) (AG) (BU) (AG) (BU) (AG) (BU) (AG)
                 (BU) (BU) (AG) (AG) (BU) (BU) (BG) (AU) (BG) (BU)
                 (AU) (AG) (AU) (BG) (BG) (BU) (AU) (BU) (BG) (AU)
                 (BG) (AG) (AU) (AG) (BU) (AG) (AG) (AG) (BU) (AG)
                 (BU) (AG) (BU) (AU) (BG) (AU) (BU) (BU) (AG) (AG)
                 (AG) (BU) (BU) (BU) (BU) (AG) (BG) (AG) (BG) (AU)
                 (AG) (BU) (AU) (BU) (AG) (BU) (AG) (BG) (BG) (AU)
                 (BU) (BG) (AU) (BG) (AG) (BU) (AG) (AU) (BG) (AG)
                 (AU) (BU) (BG) (BU) (AG) (AG) (BG) (AU) (BU) (BU)
                 (AU) (BG) (AG) (AU) (BU) (AU) (AG) (BU) (BU) (AG)
                 (BG) (AG) (BG) (AU) (BU) (AG) (AG) (BU) (AG) (AG)
                 (BU) (BU) (AG) (BU) (AG) (BU) (BU) (AG) (AG) (BU)
                 (BU) (AG) (BU) (AG) (AG) (AG) (BU) (BU) (AG) (BU)
                 (AG) (BU) (AG) (BU) (BU) (AG) (BU) (AG) (AG) (BU)
                 (AG) (BU) (AG) (BU)
 The electronic state is 1-AG.
 Alpha  occ. eigenvalues --   -9.92290  -9.92289  -9.92267  -9.92266  -9.91438
 Alpha  occ. eigenvalues --   -9.91438  -9.91419  -9.91419  -9.91391  -9.91391
 Alpha  occ. eigenvalues --   -9.91384  -9.91383  -9.91375  -9.91375  -0.80560
 Alpha  occ. eigenvalues --   -0.77616  -0.73020  -0.71433  -0.68385  -0.67245
 Alpha  occ. eigenvalues --   -0.63808  -0.58624  -0.55822  -0.54422  -0.53509
 Alpha  occ. eigenvalues --   -0.48740  -0.47103  -0.45452  -0.41661  -0.41493
 Alpha  occ. eigenvalues --   -0.40454  -0.39992  -0.37894  -0.36964  -0.36258
 Alpha  occ. eigenvalues --   -0.36239  -0.34642  -0.33551  -0.32802  -0.30711
 Alpha  occ. eigenvalues --   -0.29630  -0.28855  -0.27652  -0.27226  -0.23561
 Alpha  occ. eigenvalues --   -0.22477  -0.18144
 Alpha virt. eigenvalues --   -0.09666  -0.05071  -0.03859  -0.01541  -0.00672
 Alpha virt. eigenvalues --   -0.00257  -0.00192   0.01435   0.01675   0.01855
 Alpha virt. eigenvalues --    0.03584   0.03614   0.03944   0.04769   0.04878
 Alpha virt. eigenvalues --    0.05715   0.05936   0.05962   0.06661   0.08246
 Alpha virt. eigenvalues --    0.09122   0.09406   0.09865   0.10240   0.10799
 Alpha virt. eigenvalues --    0.11327   0.11855   0.12204   0.12331   0.12931
 Alpha virt. eigenvalues --    0.13622   0.13934   0.15121   0.15363   0.15476
 Alpha virt. eigenvalues --    0.16442   0.16808   0.17172   0.17313   0.17792
 Alpha virt. eigenvalues --    0.18007   0.18205   0.18683   0.18860   0.18927
 Alpha virt. eigenvalues --    0.19424   0.19895   0.19983   0.20100   0.21353
 Alpha virt. eigenvalues --    0.21883   0.22775   0.23178   0.23293   0.23449
 Alpha virt. eigenvalues --    0.24033   0.24556   0.24953   0.25028   0.25479
 Alpha virt. eigenvalues --    0.26083   0.27024   0.27075   0.27560   0.27902
 Alpha virt. eigenvalues --    0.28309   0.29897   0.31051   0.31985   0.32314
 Alpha virt. eigenvalues --    0.33249   0.33394   0.34512   0.36436   0.38459
 Alpha virt. eigenvalues --    0.39114   0.41666   0.42520   0.44897   0.45250
 Alpha virt. eigenvalues --    0.50977   0.52313   0.56040   0.59646   0.61622
 Alpha virt. eigenvalues --    0.61676   0.63042   0.63158   0.65389   0.66466
 Alpha virt. eigenvalues --    0.66908   0.67116   0.67190   0.68132   0.68254
 Alpha virt. eigenvalues --    0.68357   0.68851   0.69962   0.70019   0.71172
 Alpha virt. eigenvalues --    0.71529   0.72641   0.72730   0.73917   0.73997
 Alpha virt. eigenvalues --    0.76138   0.76198   0.76219   0.78203   0.81527
 Alpha virt. eigenvalues --    0.81847   0.83482   0.83913   0.84736   0.85965
 Alpha virt. eigenvalues --    0.86501   0.87366   0.90281   0.91127   0.94712
 Alpha virt. eigenvalues --    0.94911   0.95690   0.97450   1.02250   1.02328
 Alpha virt. eigenvalues --    1.04387   1.06509   1.08095   1.09170   1.10332
 Alpha virt. eigenvalues --    1.11809   1.13473   1.14420   1.14693   1.14853
 Alpha virt. eigenvalues --    1.15288   1.15779   1.16582   1.19418   1.21713
 Alpha virt. eigenvalues --    1.25096   1.25948   1.27839   1.28140   1.28206
 Alpha virt. eigenvalues --    1.29930   1.31410   1.31418   1.33579   1.33615
 Alpha virt. eigenvalues --    1.34344   1.36211   1.37456   1.37692   1.42009
 Alpha virt. eigenvalues --    1.46063   1.49643   1.50082   1.50713   1.65350
 Alpha virt. eigenvalues --    1.70220   1.72032   1.72880   1.74032   1.74829
 Alpha virt. eigenvalues --    1.78129   1.78531   1.80812   1.81350   1.81738
 Alpha virt. eigenvalues --    1.83203   1.83615   1.85801   1.86672   1.86944
 Alpha virt. eigenvalues --    1.87076   1.87718   1.89925   1.92340   1.92757
 Alpha virt. eigenvalues --    1.92786   1.93904   1.97861   1.98310   2.00909
 Alpha virt. eigenvalues --    2.04847   2.04863   2.11717   2.14282   2.14643
 Alpha virt. eigenvalues --    2.18463   2.19581   2.20638   2.21997   2.25776
 Alpha virt. eigenvalues --    2.26355   2.28692   2.29856   2.30233   2.30486
 Alpha virt. eigenvalues --    2.32340   2.32548   2.35496   2.36849   2.39751
 Alpha virt. eigenvalues --    2.41643   2.42266   2.43256   2.43762   2.44894
 Alpha virt. eigenvalues --    2.47080   2.49145   2.49487   2.51074   2.51302
 Alpha virt. eigenvalues --    2.52940   2.53315   2.54789   2.56551   2.57126
 Alpha virt. eigenvalues --    2.58937   2.61280   2.63741   2.65393   2.65976
 Alpha virt. eigenvalues --    2.68408   2.72052   2.75680   2.79007   2.80756
 Alpha virt. eigenvalues --    2.83151   2.90337   2.94855   3.00193   3.00861
 Alpha virt. eigenvalues --    3.05406   3.09377   3.11313   3.17220   3.17305
 Alpha virt. eigenvalues --    3.19473   3.21932   3.23978   3.30767   3.35816
 Alpha virt. eigenvalues --    3.38450   3.40570   3.53847   3.74564   3.75590
 Alpha virt. eigenvalues --    4.15056   4.19186   4.21159   4.25002   4.27053
 Alpha virt. eigenvalues --    4.27513   4.28265   4.32681   4.38365   4.41286
 Alpha virt. eigenvalues --    4.46969   4.50009   4.69380   4.85464
     Molecular Orbital Coefficients:
                          43        44        45        46        47
                        (AU)--O   (BG)--O   (AU)--O   (BG)--O   (BG)--O
     Eigenvalues --    -0.27652  -0.27226  -0.23561  -0.22477  -0.18144
   1 1   C  1S          0.00000   0.00000   0.00000   0.00000   0.00000
   2        2S          0.00000   0.00000   0.00000   0.00000   0.00000
   3        2PX         0.00000   0.00000   0.00000   0.00000   0.00000
   4        2PY         0.00000   0.00000   0.00000   0.00000   0.00000
   5        2PZ        -0.10055  -0.16724  -0.12362   0.22848  -0.06386
   6        3S          0.00000   0.00000   0.00000   0.00000   0.00000
   7        3PX         0.00000   0.00000   0.00000   0.00000   0.00000
   8        3PY         0.00000   0.00000   0.00000   0.00000   0.00000
   9        3PZ        -0.05653  -0.08809  -0.07982   0.14344  -0.04696
  10        4S          0.00000   0.00000   0.00000   0.00000   0.00000
  11        4PX         0.00000   0.00000   0.00000   0.00000   0.00000
  12        4PY         0.00000   0.00000   0.00000   0.00000   0.00000
  13        4PZ        -0.00996   0.00418  -0.02742   0.04262  -0.01247
  14        5XX         0.00000   0.00000   0.00000   0.00000   0.00000
  15        5YY         0.00000   0.00000   0.00000   0.00000   0.00000
  16        5ZZ         0.00000   0.00000   0.00000   0.00000   0.00000
  17        5XY         0.00000   0.00000   0.00000   0.00000   0.00000
  18        5XZ         0.01018   0.00216  -0.00710   0.00030   0.01460
  19        5YZ         0.00234  -0.01242  -0.00885  -0.00685  -0.00422
  20 2   C  1S          0.00000   0.00000   0.00000   0.00000   0.00000
  21        2S          0.00000   0.00000   0.00000   0.00000   0.00000
  22        2PX         0.00000   0.00000   0.00000   0.00000   0.00000
  23        2PY         0.00000   0.00000   0.00000   0.00000   0.00000
  24        2PZ        -0.15150   0.23453   0.00000   0.00000   0.26394
  25        3S          0.00000   0.00000   0.00000   0.00000   0.00000
  26        3PX         0.00000   0.00000   0.00000   0.00000   0.00000
  27        3PY         0.00000   0.00000   0.00000   0.00000   0.00000
  28        3PZ        -0.09551   0.14342   0.00000   0.00000   0.18226
  29        4S          0.00000   0.00000   0.00000   0.00000   0.00000
  30        4PX         0.00000   0.00000   0.00000   0.00000   0.00000
  31        4PY         0.00000   0.00000   0.00000   0.00000   0.00000
  32        4PZ        -0.01799   0.04541   0.00000   0.00000   0.08775
  33        5XX         0.00000   0.00000   0.00000   0.00000   0.00000
  34        5YY         0.00000   0.00000   0.00000   0.00000   0.00000
  35        5ZZ         0.00000   0.00000   0.00000   0.00000   0.00000
  36        5XY         0.00000   0.00000   0.00000   0.00000   0.00000
  37        5XZ        -0.00000   0.00000   0.00937   0.01479  -0.00000
  38        5YZ        -0.00579   0.00433  -0.00000   0.00000   0.00312
  39 3   H  1S          0.00000   0.00000   0.00000   0.00000   0.00000
  40        2S          0.00000   0.00000   0.00000   0.00000   0.00000
  41        3PX         0.00000   0.00000   0.00000   0.00000   0.00000
  42        3PY         0.00000   0.00000   0.00000   0.00000   0.00000
  43        3PZ        -0.00342   0.00625   0.00000   0.00000   0.00741
  44 4   C  1S          0.00000   0.00000   0.00000   0.00000   0.00000
  45        2S          0.00000   0.00000   0.00000   0.00000   0.00000
  46        2PX         0.00000   0.00000   0.00000   0.00000   0.00000
  47        2PY         0.00000   0.00000   0.00000   0.00000   0.00000
  48        2PZ        -0.10055   0.16724   0.12362   0.22848   0.06386
  49        3S          0.00000   0.00000   0.00000   0.00000   0.00000
  50        3PX         0.00000   0.00000   0.00000   0.00000   0.00000
  51        3PY         0.00000   0.00000   0.00000   0.00000   0.00000
  52        3PZ        -0.05654   0.08809   0.07982   0.14344   0.04696
  53        4S          0.00000   0.00000   0.00000   0.00000   0.00000
  54        4PX         0.00000   0.00000   0.00000   0.00000   0.00000
  55        4PY         0.00000   0.00000   0.00000   0.00000   0.00000
  56        4PZ        -0.00996  -0.00418   0.02742   0.04262   0.01247
  57        5XX         0.00000   0.00000   0.00000   0.00000   0.00000
  58        5YY         0.00000   0.00000   0.00000   0.00000   0.00000
  59        5ZZ         0.00000   0.00000   0.00000   0.00000   0.00000
  60        5XY         0.00000   0.00000   0.00000   0.00000   0.00000
  61        5XZ         0.01018  -0.00216   0.00710   0.00030  -0.01460
  62        5YZ        -0.00234  -0.01242  -0.00885   0.00685  -0.00422
  63 5   C  1S          0.00000   0.00000   0.00000   0.00000   0.00000
  64        2S          0.00000   0.00000   0.00000   0.00000   0.00000
  65        2PX         0.00000   0.00000   0.00000   0.00000   0.00000
  66        2PY         0.00000   0.00000   0.00000   0.00000   0.00000
  67        2PZ         0.22524   0.06854   0.12678  -0.20457  -0.14803
  68        3S          0.00000   0.00000   0.00000   0.00000   0.00000
  69        3PX         0.00000   0.00000   0.00000   0.00000   0.00000
  70        3PY         0.00000   0.00000   0.00000   0.00000   0.00000
  71        3PZ         0.13014   0.03354   0.07718  -0.13222  -0.11033
  72        4S          0.00000   0.00000   0.00000   0.00000   0.00000
  73        4PX         0.00000   0.00000   0.00000   0.00000   0.00000
  74        4PY         0.00000   0.00000   0.00000   0.00000   0.00000
  75        4PZ         0.02171   0.00888   0.01808  -0.03715  -0.03638
  76        5XX         0.00000   0.00000   0.00000   0.00000   0.00000
  77        5YY         0.00000   0.00000   0.00000   0.00000   0.00000
  78        5ZZ         0.00000   0.00000   0.00000   0.00000   0.00000
  79        5XY         0.00000   0.00000   0.00000   0.00000   0.00000
  80        5XZ        -0.00387  -0.00464  -0.00746  -0.00087   0.00638
  81        5YZ         0.00618  -0.00509  -0.00907  -0.00715   0.00988
  82 6   H  1S          0.00000   0.00000   0.00000   0.00000   0.00000
  83        2S          0.00000   0.00000   0.00000   0.00000   0.00000
  84        3PX         0.00000   0.00000   0.00000   0.00000   0.00000
  85        3PY         0.00000   0.00000   0.00000   0.00000   0.00000
  86        3PZ         0.00567   0.00185   0.00347  -0.00571  -0.00436
  87 7   C  1S          0.00000   0.00000   0.00000   0.00000   0.00000
  88        2S          0.00000   0.00000   0.00000   0.00000   0.00000
  89        2PX         0.00000   0.00000   0.00000   0.00000   0.00000
  90        2PY         0.00000   0.00000   0.00000   0.00000   0.00000
  91        2PZ         0.22524  -0.06854  -0.12678  -0.20457   0.14803
  92        3S          0.00000   0.00000   0.00000   0.00000   0.00000
  93        3PX         0.00000   0.00000   0.00000   0.00000   0.00000
  94        3PY         0.00000   0.00000   0.00000   0.00000   0.00000
  95        3PZ         0.13014  -0.03354  -0.07718  -0.13222   0.11033
  96        4S          0.00000   0.00000   0.00000   0.00000   0.00000
  97        4PX         0.00000   0.00000   0.00000   0.00000   0.00000
  98        4PY         0.00000   0.00000   0.00000   0.00000   0.00000
  99        4PZ         0.02171  -0.00888  -0.01808  -0.03715   0.03638
 100        5XX         0.00000   0.00000   0.00000   0.00000   0.00000
 101        5YY         0.00000   0.00000   0.00000   0.00000   0.00000
 102        5ZZ         0.00000   0.00000   0.00000   0.00000   0.00000
 103        5XY         0.00000   0.00000   0.00000   0.00000   0.00000
 104        5XZ        -0.00387   0.00464   0.00746  -0.00087  -0.00638
 105        5YZ        -0.00618  -0.00509  -0.00907   0.00715   0.00988
 106 8   H  1S          0.00000   0.00000   0.00000   0.00000   0.00000
 107        2S          0.00000   0.00000   0.00000   0.00000   0.00000
 108        3PX         0.00000   0.00000   0.00000   0.00000   0.00000
 109        3PY         0.00000   0.00000   0.00000   0.00000   0.00000
 110        3PZ         0.00567  -0.00185  -0.00347  -0.00571   0.00436
 111 9   C  1S          0.00000   0.00000   0.00000   0.00000   0.00000
 112        2S          0.00000   0.00000   0.00000   0.00000   0.00000
 113        2PX         0.00000   0.00000   0.00000   0.00000   0.00000
 114        2PY         0.00000   0.00000   0.00000   0.00000   0.00000
 115        2PZ         0.10411   0.16064   0.24230   0.00634  -0.19268
 116        3S          0.00000   0.00000   0.00000   0.00000   0.00000
 117        3PX         0.00000   0.00000   0.00000   0.00000   0.00000
 118        3PY         0.00000   0.00000   0.00000   0.00000   0.00000
 119        3PZ         0.06174   0.09877   0.15113   0.00876  -0.13099
 120        4S          0.00000   0.00000   0.00000   0.00000   0.00000
 121        4PX         0.00000   0.00000   0.00000   0.00000   0.00000
 122        4PY         0.00000   0.00000   0.00000   0.00000   0.00000
 123        4PZ         0.01221   0.01961   0.03870   0.00181  -0.05965
 124        5XX         0.00000   0.00000   0.00000   0.00000   0.00000
 125        5YY         0.00000   0.00000   0.00000   0.00000   0.00000
 126        5ZZ         0.00000   0.00000   0.00000   0.00000   0.00000
 127        5XY         0.00000   0.00000   0.00000   0.00000   0.00000
 128        5XZ         0.00980  -0.00367  -0.00000  -0.01384  -0.00816
 129        5YZ         0.00405   0.00302   0.00386   0.00016  -0.00230
 130 10  H  1S          0.00000   0.00000   0.00000   0.00000   0.00000
 131        2S          0.00000   0.00000   0.00000   0.00000   0.00000
 132        3PX         0.00000   0.00000   0.00000   0.00000   0.00000
 133        3PY         0.00000   0.00000   0.00000   0.00000   0.00000
 134        3PZ         0.00237   0.00428   0.00664   0.00014  -0.00543
 135 11  C  1S          0.00000   0.00000   0.00000   0.00000   0.00000
 136        2S          0.00000   0.00000   0.00000   0.00000   0.00000
 137        2PX         0.00000   0.00000   0.00000   0.00000   0.00000
 138        2PY         0.00000   0.00000   0.00000   0.00000   0.00000
 139        2PZ         0.10412  -0.16064  -0.24230   0.00634   0.19268
 140        3S          0.00000   0.00000   0.00000   0.00000   0.00000
 141        3PX         0.00000   0.00000   0.00000   0.00000   0.00000
 142        3PY         0.00000   0.00000   0.00000   0.00000   0.00000
 143        3PZ         0.06174  -0.09877  -0.15113   0.00876   0.13099
 144        4S          0.00000   0.00000   0.00000   0.00000   0.00000
 145        4PX         0.00000   0.00000   0.00000   0.00000   0.00000
 146        4PY         0.00000   0.00000   0.00000   0.00000   0.00000
 147        4PZ         0.01221  -0.01961  -0.03870   0.00181   0.05965
 148        5XX         0.00000   0.00000   0.00000   0.00000   0.00000
 149        5YY         0.00000   0.00000   0.00000   0.00000   0.00000
 150        5ZZ         0.00000   0.00000   0.00000   0.00000   0.00000
 151        5XY         0.00000   0.00000   0.00000   0.00000   0.00000
 152        5XZ         0.00980   0.00367   0.00000  -0.01384   0.00816
 153        5YZ        -0.00405   0.00302   0.00386  -0.00016  -0.00230
 154 12  H  1S          0.00000   0.00000   0.00000   0.00000   0.00000
 155        2S          0.00000   0.00000   0.00000   0.00000   0.00000
 156        3PX         0.00000   0.00000   0.00000   0.00000   0.00000
 157        3PY         0.00000   0.00000   0.00000   0.00000   0.00000
 158        3PZ         0.00237   0.00428  -0.00664  -0.00014  -0.00543
 159 13  C  1S          0.00000   0.00000   0.00000   0.00000   0.00000
 160        2S          0.00000   0.00000   0.00000   0.00000   0.00000
 161        2PX         0.00000   0.00000   0.00000   0.00000   0.00000
 162        2PY         0.00000   0.00000   0.00000   0.00000   0.00000
 163        2PZ        -0.10055   0.16724  -0.12362  -0.22848   0.06386
 164        3S          0.00000   0.00000   0.00000   0.00000   0.00000
 165        3PX         0.00000   0.00000   0.00000   0.00000   0.00000
 166        3PY         0.00000   0.00000   0.00000   0.00000   0.00000
 167        3PZ        -0.05653   0.08809  -0.07982  -0.14344   0.04696
 168        4S          0.00000   0.00000   0.00000   0.00000   0.00000
 169        4PX         0.00000   0.00000   0.00000   0.00000   0.00000
 170        4PY         0.00000   0.00000   0.00000   0.00000   0.00000
 171        4PZ        -0.00996  -0.00418  -0.02742  -0.04262   0.01247
 172        5XX         0.00000   0.00000   0.00000   0.00000   0.00000
 173        5YY         0.00000   0.00000   0.00000   0.00000   0.00000
 174        5ZZ         0.00000   0.00000   0.00000   0.00000   0.00000
 175        5XY         0.00000   0.00000   0.00000   0.00000   0.00000
 176        5XZ        -0.01018   0.00216   0.00710   0.00030   0.01460
 177        5YZ        -0.00234  -0.01242   0.00885  -0.00685  -0.00422
 178 14  C  1S          0.00000   0.00000   0.00000   0.00000   0.00000
 179        2S          0.00000   0.00000   0.00000   0.00000   0.00000
 180        2PX         0.00000   0.00000   0.00000   0.00000   0.00000
 181        2PY         0.00000   0.00000   0.00000   0.00000   0.00000
 182        2PZ        -0.15150  -0.23453   0.00000  -0.00000  -0.26394
 183        3S          0.00000   0.00000   0.00000   0.00000   0.00000
 184        3PX         0.00000   0.00000   0.00000   0.00000   0.00000
 185        3PY         0.00000   0.00000   0.00000   0.00000   0.00000
 186        3PZ        -0.09551  -0.14342   0.00000  -0.00000  -0.18226
 187        4S          0.00000   0.00000   0.00000   0.00000   0.00000
 188        4PX         0.00000   0.00000   0.00000   0.00000   0.00000
 189        4PY         0.00000   0.00000   0.00000   0.00000   0.00000
 190        4PZ        -0.01799  -0.04541   0.00000  -0.00000  -0.08775
 191        5XX         0.00000   0.00000   0.00000   0.00000   0.00000
 192        5YY         0.00000   0.00000   0.00000   0.00000   0.00000
 193        5ZZ         0.00000   0.00000   0.00000   0.00000   0.00000
 194        5XY         0.00000   0.00000   0.00000   0.00000   0.00000
 195        5XZ         0.00000   0.00000  -0.00937   0.01479  -0.00000
 196        5YZ         0.00579   0.00433   0.00000   0.00000   0.00312
 197 15  H  1S          0.00000   0.00000   0.00000   0.00000   0.00000
 198        2S          0.00000   0.00000   0.00000   0.00000   0.00000
 199        3PX         0.00000   0.00000   0.00000   0.00000   0.00000
 200        3PY         0.00000   0.00000   0.00000   0.00000   0.00000
 201        3PZ        -0.00342  -0.00625   0.00000  -0.00000  -0.00741
 202 16  C  1S          0.00000   0.00000   0.00000   0.00000   0.00000
 203        2S          0.00000   0.00000   0.00000   0.00000   0.00000
 204        2PX         0.00000   0.00000   0.00000   0.00000   0.00000
 205        2PY         0.00000   0.00000   0.00000   0.00000   0.00000
 206        2PZ        -0.10055  -0.16724   0.12362  -0.22848  -0.06386
 207        3S          0.00000   0.00000   0.00000   0.00000   0.00000
 208        3PX         0.00000   0.00000   0.00000   0.00000   0.00000
 209        3PY         0.00000   0.00000   0.00000   0.00000   0.00000
 210        3PZ        -0.05654  -0.08809   0.07982  -0.14344  -0.04696
 211        4S          0.00000   0.00000   0.00000   0.00000   0.00000
 212        4PX         0.00000   0.00000   0.00000   0.00000   0.00000
 213        4PY         0.00000   0.00000   0.00000   0.00000   0.00000
 214        4PZ        -0.00996   0.00418   0.02742  -0.04262  -0.01247
 215        5XX         0.00000   0.00000   0.00000   0.00000   0.00000
 216        5YY         0.00000   0.00000   0.00000   0.00000   0.00000
 217        5ZZ         0.00000   0.00000   0.00000   0.00000   0.00000
 218        5XY         0.00000   0.00000   0.00000   0.00000   0.00000
 219        5XZ        -0.01018  -0.00216  -0.00710   0.00030  -0.01460
 220        5YZ         0.00234  -0.01242   0.00885   0.00685  -0.00422
 221 17  C  1S          0.00000   0.00000   0.00000   0.00000   0.00000
 222        2S          0.00000   0.00000   0.00000   0.00000   0.00000
 223        2PX         0.00000   0.00000   0.00000   0.00000   0.00000
 224        2PY         0.00000   0.00000   0.00000   0.00000   0.00000
 225        2PZ         0.22524  -0.06854   0.12678   0.20457   0.14803
 226        3S          0.00000   0.00000   0.00000   0.00000   0.00000
 227        3PX         0.00000   0.00000   0.00000   0.00000   0.00000
 228        3PY         0.00000   0.00000   0.00000   0.00000   0.00000
 229        3PZ         0.13014  -0.03354   0.07718   0.13222   0.11033
 230        4S          0.00000   0.00000   0.00000   0.00000   0.00000
 231        4PX         0.00000   0.00000   0.00000   0.00000   0.00000
 232        4PY         0.00000   0.00000   0.00000   0.00000   0.00000
 233        4PZ         0.02171  -0.00888   0.01808   0.03715   0.03638
 234        5XX         0.00000   0.00000   0.00000   0.00000   0.00000
 235        5YY         0.00000   0.00000   0.00000   0.00000   0.00000
 236        5ZZ         0.00000   0.00000   0.00000   0.00000   0.00000
 237        5XY         0.00000   0.00000   0.00000   0.00000   0.00000
 238        5XZ         0.00387  -0.00464   0.00746  -0.00087   0.00638
 239        5YZ        -0.00618  -0.00509   0.00907  -0.00715   0.00988
 240 18  H  1S          0.00000   0.00000   0.00000   0.00000   0.00000
 241        2S          0.00000   0.00000   0.00000   0.00000   0.00000
 242        3PX         0.00000   0.00000   0.00000   0.00000   0.00000
 243        3PY         0.00000   0.00000   0.00000   0.00000   0.00000
 244        3PZ         0.00567  -0.00185   0.00347   0.00571   0.00436
 245 19  C  1S          0.00000   0.00000   0.00000   0.00000   0.00000
 246        2S          0.00000   0.00000   0.00000   0.00000   0.00000
 247        2PX         0.00000   0.00000   0.00000   0.00000   0.00000
 248        2PY         0.00000   0.00000   0.00000   0.00000   0.00000
 249        2PZ         0.22524   0.06854  -0.12678   0.20457  -0.14803
 250        3S          0.00000   0.00000   0.00000   0.00000   0.00000
 251        3PX         0.00000   0.00000   0.00000   0.00000   0.00000
 252        3PY         0.00000   0.00000   0.00000   0.00000   0.00000
 253        3PZ         0.13014   0.03354  -0.07718   0.13222  -0.11033
 254        4S          0.00000   0.00000   0.00000   0.00000   0.00000
 255        4PX         0.00000   0.00000   0.00000   0.00000   0.00000
 256        4PY         0.00000   0.00000   0.00000   0.00000   0.00000
 257        4PZ         0.02171   0.00888  -0.01808   0.03715  -0.03638
 258        5XX         0.00000   0.00000   0.00000   0.00000   0.00000
 259        5YY         0.00000   0.00000   0.00000   0.00000   0.00000
 260        5ZZ         0.00000   0.00000   0.00000   0.00000   0.00000
 261        5XY         0.00000   0.00000   0.00000   0.00000   0.00000
 262        5XZ         0.00387   0.00464  -0.00746  -0.00087  -0.00638
 263        5YZ         0.00618  -0.00509   0.00907   0.00715   0.00988
 264 20  H  1S          0.00000   0.00000   0.00000   0.00000   0.00000
 265        2S          0.00000   0.00000   0.00000   0.00000   0.00000
 266        3PX         0.00000   0.00000   0.00000   0.00000   0.00000
 267        3PY         0.00000   0.00000   0.00000   0.00000   0.00000
 268        3PZ         0.00567   0.00185  -0.00347   0.00571  -0.00436
 269 21  C  1S          0.00000   0.00000   0.00000   0.00000   0.00000
 270        2S          0.00000   0.00000   0.00000   0.00000   0.00000
 271        2PX         0.00000   0.00000   0.00000   0.00000   0.00000
 272        2PY         0.00000   0.00000   0.00000   0.00000   0.00000
 273        2PZ         0.10411  -0.16064   0.24230  -0.00634   0.19268
 274        3S          0.00000   0.00000   0.00000   0.00000   0.00000
 275        3PX         0.00000   0.00000   0.00000   0.00000   0.00000
 276        3PY         0.00000   0.00000   0.00000   0.00000   0.00000
 277        3PZ         0.06174  -0.09877   0.15113  -0.00876   0.13099
 278        4S          0.00000   0.00000   0.00000   0.00000   0.00000
 279        4PX         0.00000   0.00000   0.00000   0.00000   0.00000
 280        4PY         0.00000   0.00000   0.00000   0.00000   0.00000
 281        4PZ         0.01221  -0.01961   0.03870  -0.00181   0.05965
 282        5XX         0.00000   0.00000   0.00000   0.00000   0.00000
 283        5YY         0.00000   0.00000   0.00000   0.00000   0.00000
 284        5ZZ         0.00000   0.00000   0.00000   0.00000   0.00000
 285        5XY         0.00000   0.00000   0.00000   0.00000   0.00000
 286        5XZ        -0.00980  -0.00367   0.00000  -0.01384  -0.00816
 287        5YZ        -0.00405   0.00302  -0.00386   0.00016  -0.00230
 288 22  H  1S          0.00000   0.00000   0.00000   0.00000   0.00000
 289        2S          0.00000   0.00000   0.00000   0.00000   0.00000
 290        3PX         0.00000   0.00000   0.00000   0.00000   0.00000
 291        3PY         0.00000   0.00000   0.00000   0.00000   0.00000
 292        3PZ         0.00237  -0.00428   0.00664  -0.00014   0.00543
 293 23  C  1S          0.00000   0.00000   0.00000   0.00000   0.00000
 294        2S          0.00000   0.00000   0.00000   0.00000   0.00000
 295        2PX         0.00000   0.00000   0.00000   0.00000   0.00000
 296        2PY         0.00000   0.00000   0.00000   0.00000   0.00000
 297        2PZ         0.10412   0.16064  -0.24230  -0.00634  -0.19268
 298        3S          0.00000   0.00000   0.00000   0.00000   0.00000
 299        3PX         0.00000   0.00000   0.00000   0.00000   0.00000
 300        3PY         0.00000   0.00000   0.00000   0.00000   0.00000
 301        3PZ         0.06174   0.09877  -0.15113  -0.00876  -0.13099
 302        4S          0.00000   0.00000   0.00000   0.00000   0.00000
 303        4PX         0.00000   0.00000   0.00000   0.00000   0.00000
 304        4PY         0.00000   0.00000   0.00000   0.00000   0.00000
 305        4PZ         0.01221   0.01961  -0.03870  -0.00181  -0.05965
 306        5XX         0.00000   0.00000   0.00000   0.00000   0.00000
 307        5YY         0.00000   0.00000   0.00000   0.00000   0.00000
 308        5ZZ         0.00000   0.00000   0.00000   0.00000   0.00000
 309        5XY         0.00000   0.00000   0.00000   0.00000   0.00000
 310        5XZ        -0.00980   0.00367  -0.00000  -0.01384   0.00816
 311        5YZ         0.00405   0.00302  -0.00386  -0.00016  -0.00230
 312 24  H  1S          0.00000   0.00000   0.00000   0.00000   0.00000
 313        2S          0.00000   0.00000   0.00000   0.00000   0.00000
 314        3PX         0.00000   0.00000   0.00000   0.00000   0.00000
 315        3PY         0.00000   0.00000   0.00000   0.00000   0.00000
 316        3PZ         0.00237  -0.00428  -0.00664   0.00014   0.00543
                          48        49        50        51        52
                        (AU)--V   (AU)--V   (BG)--V   (AU)--V   (AG)--V
     Eigenvalues --    -0.09666  -0.05071  -0.03859  -0.01541  -0.00672
   1 1   C  1S          0.00000   0.00000   0.00000   0.00000  -0.01240
   2        2S          0.00000   0.00000   0.00000   0.00000   0.01776
   3        2PX         0.00000   0.00000   0.00000   0.00000   0.00943
   4        2PY         0.00000   0.00000   0.00000   0.00000  -0.02689
   5        2PZ        -0.06760   0.24789  -0.15337  -0.18417   0.00000
   6        3S          0.00000   0.00000   0.00000   0.00000   0.18828
   7        3PX         0.00000   0.00000   0.00000   0.00000   0.00326
   8        3PY         0.00000   0.00000   0.00000   0.00000   0.01574
   9        3PZ        -0.05409   0.24826  -0.14753  -0.21884   0.00000
  10        4S          0.00000   0.00000   0.00000   0.00000  -1.24362
  11        4PX         0.00000   0.00000   0.00000   0.00000  -1.19849
  12        4PY         0.00000   0.00000   0.00000   0.00000   0.91280
  13        4PZ        -0.05237   0.42115  -0.22081  -0.46610   0.00000
  14        5XX         0.00000   0.00000   0.00000   0.00000  -0.00589
  15        5YY         0.00000   0.00000   0.00000   0.00000   0.00511
  16        5ZZ         0.00000   0.00000   0.00000   0.00000  -0.00489
  17        5XY         0.00000   0.00000   0.00000   0.00000  -0.00004
  18        5XZ        -0.02055  -0.00005   0.01066  -0.00301   0.00000
  19        5YZ         0.00414   0.01304   0.01415   0.02231   0.00000
  20 2   C  1S          0.00000   0.00000   0.00000   0.00000  -0.00845
  21        2S          0.00000   0.00000   0.00000   0.00000   0.02981
  22        2PX         0.00000   0.00000   0.00000   0.00000   0.00000
  23        2PY         0.00000   0.00000   0.00000   0.00000  -0.08003
  24        2PZ         0.26540  -0.00000  -0.00000   0.21482   0.00000
  25        3S          0.00000   0.00000   0.00000   0.00000  -0.02561
  26        3PX         0.00000   0.00000   0.00000   0.00000   0.00000
  27        3PY         0.00000   0.00000   0.00000   0.00000  -0.07926
  28        3PZ         0.23671  -0.00000   0.00000   0.27026   0.00000
  29        4S          0.00000   0.00000   0.00000   0.00000  -2.05906
  30        4PX         0.00000   0.00000   0.00000   0.00000   0.00005
  31        4PY         0.00000   0.00000   0.00000   0.00000   0.43393
  32        4PZ         0.20569  -0.00000   0.00000   0.68377   0.00000
  33        5XX         0.00000   0.00000   0.00000   0.00000   0.00153
  34        5YY         0.00000   0.00000   0.00000   0.00000  -0.00034
  35        5ZZ         0.00000   0.00000   0.00000   0.00000  -0.00239
  36        5XY         0.00000   0.00000   0.00000   0.00000  -0.00000
  37        5XZ         0.00000  -0.02267  -0.00984  -0.00000   0.00000
  38        5YZ         0.00017   0.00000  -0.00000  -0.01563   0.00000
  39 3   H  1S          0.00000   0.00000   0.00000   0.00000   0.00935
  40        2S          0.00000   0.00000   0.00000   0.00000   0.02195
  41        3PX         0.00000   0.00000   0.00000   0.00000   0.00000
  42        3PY         0.00000   0.00000   0.00000   0.00000   0.00689
  43        3PZ         0.00828  -0.00000   0.00000   0.01276   0.00000
  44 4   C  1S          0.00000   0.00000   0.00000   0.00000  -0.01240
  45        2S          0.00000   0.00000   0.00000   0.00000   0.01776
  46        2PX         0.00000   0.00000   0.00000   0.00000   0.00943
  47        2PY         0.00000   0.00000   0.00000   0.00000   0.02689
  48        2PZ        -0.06760  -0.24788  -0.15337  -0.18417   0.00000
  49        3S          0.00000   0.00000   0.00000   0.00000   0.18828
  50        3PX         0.00000   0.00000   0.00000   0.00000   0.00326
  51        3PY         0.00000   0.00000   0.00000   0.00000  -0.01574
  52        3PZ        -0.05409  -0.24826  -0.14753  -0.21884   0.00000
  53        4S          0.00000   0.00000   0.00000   0.00000  -1.24352
  54        4PX         0.00000   0.00000   0.00000   0.00000  -1.19842
  55        4PY         0.00000   0.00000   0.00000   0.00000  -0.91268
  56        4PZ        -0.05237  -0.42115  -0.22081  -0.46610   0.00000
  57        5XX         0.00000   0.00000   0.00000   0.00000  -0.00589
  58        5YY         0.00000   0.00000   0.00000   0.00000   0.00511
  59        5ZZ         0.00000   0.00000   0.00000   0.00000  -0.00489
  60        5XY         0.00000   0.00000   0.00000   0.00000   0.00004
  61        5XZ        -0.02055   0.00005   0.01066  -0.00301   0.00000
  62        5YZ        -0.00414   0.01304  -0.01415  -0.02231   0.00000
  63 5   C  1S          0.00000   0.00000   0.00000   0.00000  -0.01883
  64        2S          0.00000   0.00000   0.00000   0.00000   0.04892
  65        2PX         0.00000   0.00000   0.00000   0.00000   0.06686
  66        2PY         0.00000   0.00000   0.00000   0.00000  -0.02838
  67        2PZ         0.15673   0.22031  -0.12922  -0.06060   0.00000
  68        3S          0.00000   0.00000   0.00000   0.00000   0.10242
  69        3PX         0.00000   0.00000   0.00000   0.00000   0.07770
  70        3PY         0.00000   0.00000   0.00000   0.00000  -0.01417
  71        3PZ         0.13798   0.23035  -0.14256  -0.08718   0.00000
  72        4S          0.00000   0.00000   0.00000   0.00000  -1.20218
  73        4PX         0.00000   0.00000   0.00000   0.00000  -0.06651
  74        4PY         0.00000   0.00000   0.00000   0.00000   0.26187
  75        4PZ         0.11630   0.24874  -0.19205  -0.12331   0.00000
  76        5XX         0.00000   0.00000   0.00000   0.00000  -0.00591
  77        5YY         0.00000   0.00000   0.00000   0.00000   0.00367
  78        5ZZ         0.00000   0.00000   0.00000   0.00000  -0.00251
  79        5XY         0.00000   0.00000   0.00000   0.00000   0.00870
  80        5XZ         0.01011   0.00007  -0.01250  -0.00546   0.00000
  81        5YZ         0.01133  -0.01155  -0.01452  -0.00902   0.00000
  82 6   H  1S          0.00000   0.00000   0.00000   0.00000  -0.02018
  83        2S          0.00000   0.00000   0.00000   0.00000  -0.05030
  84        3PX         0.00000   0.00000   0.00000   0.00000  -0.00686
  85        3PY         0.00000   0.00000   0.00000   0.00000   0.00374
  86        3PZ         0.00577   0.00865  -0.00530  -0.00200   0.00000
  87 7   C  1S          0.00000   0.00000   0.00000   0.00000  -0.01883
  88        2S          0.00000   0.00000   0.00000   0.00000   0.04892
  89        2PX         0.00000   0.00000   0.00000   0.00000   0.06686
  90        2PY         0.00000   0.00000   0.00000   0.00000   0.02838
  91        2PZ         0.15673  -0.22030  -0.12921  -0.06060   0.00000
  92        3S          0.00000   0.00000   0.00000   0.00000   0.10242
  93        3PX         0.00000   0.00000   0.00000   0.00000   0.07770
  94        3PY         0.00000   0.00000   0.00000   0.00000   0.01417
  95        3PZ         0.13798  -0.23035  -0.14256  -0.08718   0.00000
  96        4S          0.00000   0.00000   0.00000   0.00000  -1.20219
  97        4PX         0.00000   0.00000   0.00000   0.00000  -0.06650
  98        4PY         0.00000   0.00000   0.00000   0.00000  -0.26188
  99        4PZ         0.11630  -0.24874  -0.19205  -0.12331   0.00000
 100        5XX         0.00000   0.00000   0.00000   0.00000  -0.00591
 101        5YY         0.00000   0.00000   0.00000   0.00000   0.00367
 102        5ZZ         0.00000   0.00000   0.00000   0.00000  -0.00251
 103        5XY         0.00000   0.00000   0.00000   0.00000  -0.00870
 104        5XZ         0.01011  -0.00007  -0.01250  -0.00546   0.00000
 105        5YZ        -0.01133  -0.01155   0.01452   0.00902   0.00000
 106 8   H  1S          0.00000   0.00000   0.00000   0.00000  -0.02018
 107        2S          0.00000   0.00000   0.00000   0.00000  -0.05030
 108        3PX         0.00000   0.00000   0.00000   0.00000  -0.00686
 109        3PY         0.00000   0.00000   0.00000   0.00000  -0.00374
 110        3PZ         0.00577  -0.00865  -0.00530  -0.00200   0.00000
 111 9   C  1S          0.00000   0.00000   0.00000   0.00000  -0.01570
 112        2S          0.00000   0.00000   0.00000   0.00000   0.03651
 113        2PX         0.00000   0.00000   0.00000   0.00000   0.01702
 114        2PY         0.00000   0.00000   0.00000   0.00000  -0.07227
 115        2PZ        -0.19939   0.00289   0.25847   0.13965   0.00000
 116        3S          0.00000   0.00000   0.00000   0.00000   0.12243
 117        3PX         0.00000   0.00000   0.00000   0.00000   0.04608
 118        3PY         0.00000   0.00000   0.00000   0.00000  -0.05925
 119        3PZ        -0.18468  -0.00195   0.27399   0.18074   0.00000
 120        4S          0.00000   0.00000   0.00000   0.00000   2.88610
 121        4PX         0.00000   0.00000   0.00000   0.00000   0.11146
 122        4PY         0.00000   0.00000   0.00000   0.00000   0.96528
 123        4PZ        -0.14850   0.06010   0.38969   0.39857   0.00000
 124        5XX         0.00000   0.00000   0.00000   0.00000   0.00432
 125        5YY         0.00000   0.00000   0.00000   0.00000  -0.00577
 126        5ZZ         0.00000   0.00000   0.00000   0.00000  -0.00340
 127        5XY         0.00000   0.00000   0.00000   0.00000  -0.00143
 128        5XZ         0.00810   0.02145   0.00036   0.00301   0.00000
 129        5YZ         0.00001  -0.00018  -0.00799  -0.01059   0.00000
 130 10  H  1S          0.00000   0.00000   0.00000   0.00000  -0.00597
 131        2S          0.00000   0.00000   0.00000   0.00000  -0.03062
 132        3PX         0.00000   0.00000   0.00000   0.00000  -0.00027
 133        3PY         0.00000   0.00000   0.00000   0.00000   0.00696
 134        3PZ        -0.00624   0.00021   0.01070   0.00846   0.00000
 135 11  C  1S          0.00000   0.00000   0.00000   0.00000  -0.01570
 136        2S          0.00000   0.00000   0.00000   0.00000   0.03651
 137        2PX         0.00000   0.00000   0.00000   0.00000   0.01702
 138        2PY         0.00000   0.00000   0.00000   0.00000   0.07227
 139        2PZ        -0.19939  -0.00289   0.25847   0.13966   0.00000
 140        3S          0.00000   0.00000   0.00000   0.00000   0.12244
 141        3PX         0.00000   0.00000   0.00000   0.00000   0.04608
 142        3PY         0.00000   0.00000   0.00000   0.00000   0.05925
 143        3PZ        -0.18468   0.00195   0.27399   0.18074   0.00000
 144        4S          0.00000   0.00000   0.00000   0.00000   2.88616
 145        4PX         0.00000   0.00000   0.00000   0.00000   0.11147
 146        4PY         0.00000   0.00000   0.00000   0.00000  -0.96529
 147        4PZ        -0.14849  -0.06010   0.38969   0.39857   0.00000
 148        5XX         0.00000   0.00000   0.00000   0.00000   0.00432
 149        5YY         0.00000   0.00000   0.00000   0.00000  -0.00577
 150        5ZZ         0.00000   0.00000   0.00000   0.00000  -0.00340
 151        5XY         0.00000   0.00000   0.00000   0.00000   0.00143
 152        5XZ         0.00810  -0.02145   0.00036   0.00301   0.00000
 153        5YZ        -0.00001  -0.00018   0.00799   0.01059   0.00000
 154 12  H  1S          0.00000   0.00000   0.00000   0.00000  -0.00597
 155        2S          0.00000   0.00000   0.00000   0.00000  -0.03062
 156        3PX         0.00000   0.00000   0.00000   0.00000   0.00027
 157        3PY         0.00000   0.00000   0.00000   0.00000   0.00696
 158        3PZ        -0.00624  -0.00021  -0.01070   0.00846   0.00000
 159 13  C  1S          0.00000   0.00000   0.00000   0.00000  -0.01240
 160        2S          0.00000   0.00000   0.00000   0.00000   0.01776
 161        2PX         0.00000   0.00000   0.00000   0.00000  -0.00943
 162        2PY         0.00000   0.00000   0.00000   0.00000   0.02689
 163        2PZ        -0.06760   0.24789   0.15337  -0.18417   0.00000
 164        3S          0.00000   0.00000   0.00000   0.00000   0.18828
 165        3PX         0.00000   0.00000   0.00000   0.00000  -0.00326
 166        3PY         0.00000   0.00000   0.00000   0.00000  -0.01574
 167        3PZ        -0.05409   0.24826   0.14753  -0.21884   0.00000
 168        4S          0.00000   0.00000   0.00000   0.00000  -1.24362
 169        4PX         0.00000   0.00000   0.00000   0.00000   1.19849
 170        4PY         0.00000   0.00000   0.00000   0.00000  -0.91280
 171        4PZ        -0.05237   0.42115   0.22081  -0.46610   0.00000
 172        5XX         0.00000   0.00000   0.00000   0.00000  -0.00589
 173        5YY         0.00000   0.00000   0.00000   0.00000   0.00511
 174        5ZZ         0.00000   0.00000   0.00000   0.00000  -0.00489
 175        5XY         0.00000   0.00000   0.00000   0.00000  -0.00004
 176        5XZ         0.02055   0.00005   0.01066   0.00301   0.00000
 177        5YZ        -0.00414  -0.01304   0.01415  -0.02231   0.00000
 178 14  C  1S          0.00000   0.00000   0.00000   0.00000  -0.00845
 179        2S          0.00000   0.00000   0.00000   0.00000   0.02981
 180        2PX         0.00000   0.00000   0.00000   0.00000  -0.00000
 181        2PY         0.00000   0.00000   0.00000   0.00000   0.08003
 182        2PZ         0.26540  -0.00000   0.00000   0.21482   0.00000
 183        3S          0.00000   0.00000   0.00000   0.00000  -0.02561
 184        3PX         0.00000   0.00000   0.00000   0.00000  -0.00000
 185        3PY         0.00000   0.00000   0.00000   0.00000   0.07926
 186        3PZ         0.23671  -0.00000  -0.00000   0.27026   0.00000
 187        4S          0.00000   0.00000   0.00000   0.00000  -2.05906
 188        4PX         0.00000   0.00000   0.00000   0.00000  -0.00005
 189        4PY         0.00000   0.00000   0.00000   0.00000  -0.43393
 190        4PZ         0.20569  -0.00000  -0.00000   0.68377   0.00000
 191        5XX         0.00000   0.00000   0.00000   0.00000   0.00153
 192        5YY         0.00000   0.00000   0.00000   0.00000  -0.00034
 193        5ZZ         0.00000   0.00000   0.00000   0.00000  -0.00239
 194        5XY         0.00000   0.00000   0.00000   0.00000  -0.00000
 195        5XZ        -0.00000   0.02267  -0.00984   0.00000   0.00000
 196        5YZ        -0.00017  -0.00000  -0.00000   0.01563   0.00000
 197 15  H  1S          0.00000   0.00000   0.00000   0.00000   0.00935
 198        2S          0.00000   0.00000   0.00000   0.00000   0.02195
 199        3PX         0.00000   0.00000   0.00000   0.00000  -0.00000
 200        3PY         0.00000   0.00000   0.00000   0.00000  -0.00689
 201        3PZ         0.00828  -0.00000  -0.00000   0.01276   0.00000
 202 16  C  1S          0.00000   0.00000   0.00000   0.00000  -0.01240
[...]
 250        3S          0.56184
 251        3PX         0.22702
 252        3PY         0.17209
 253        3PZ         0.38773
 254        4S          0.00238
 255        4PX         0.02287
 256        4PY        -0.00115
 257        4PZ         0.03517
 258        5XX         0.00173
 259        5YY         0.00093
 260        5ZZ        -0.02120
 261        5XY         0.01144
 262        5XZ         0.00309
 263        5YZ         0.00507
 264 20  H  1S          0.52973
 265        2S          0.31510
 266        3PX         0.00599
 267        3PY         0.00330
 268        3PZ         0.00296
 269 21  C  1S          1.99169
 270        2S          0.70367
 271        2PX         0.75414
 272        2PY         0.73948
 273        2PZ         0.57255
 274        3S          0.56620
 275        3PX         0.18330
 276        3PY         0.23957
 277        3PZ         0.38498
 278        4S          0.17317
 279        4PX        -0.04983
 280        4PY        -0.00371
 281        4PZ         0.03504
 282        5XX         0.00232
 283        5YY         0.00258
 284        5ZZ        -0.02127
 285        5XY         0.00939
 286        5XZ         0.00628
 287        5YZ         0.00184
 288 22  H  1S          0.52922
 289        2S          0.31749
 290        3PX         0.00200
 291        3PY         0.00728
 292        3PZ         0.00298
 293 23  C  1S          1.99169
 294        2S          0.70367
 295        2PX         0.75414
 296        2PY         0.73948
 297        2PZ         0.57255
 298        3S          0.56620
 299        3PX         0.18330
 300        3PY         0.23957
 301        3PZ         0.38498
 302        4S          0.17317
 303        4PX        -0.04983
 304        4PY        -0.00371
 305        4PZ         0.03504
 306        5XX         0.00232
 307        5YY         0.00258
 308        5ZZ        -0.02127
 309        5XY         0.00939
 310        5XZ         0.00628
 311        5YZ         0.00184
 312 24  H  1S          0.52922
 313        2S          0.31749
 314        3PX         0.00200
 315        3PY         0.00728
 316        3PZ         0.00298
          Condensed to atoms (all electrons):
               1          2          3          4          5          6
     1  C   16.449166  -1.517197   0.001238   3.993995   1.596094   0.013653
     2  C   -1.517197   8.126208   0.338471  -1.427533  -0.710638  -0.010172
     3  H    0.001238   0.338471   0.570624  -0.063805   0.009874  -0.000009
     4  C    3.993995  -1.427533  -0.063805  16.449126   1.696426   0.014395
     5  C    1.596094  -0.710638   0.009874   1.696426   6.438756   0.265011
     6  H    0.013653  -0.010172  -0.000009   0.014395   0.265011   0.559051
     7  C    1.696406  -0.514850   0.002662   1.596087   1.454216   0.009322
     8  H    0.014395   0.003113   0.000000   0.013653   0.009322  -0.005193
     9  C   -3.667757   1.322807   0.026288  -6.887484  -1.609431   0.003958
    10  H    0.027074   0.044614   0.003968  -0.053824   0.002608  -0.005665
    11  C   -6.887440   1.152280   0.001747  -3.667737  -1.897779   0.010063
    12  H    0.003108   0.044613   0.003968   0.005988   0.000510   0.000000
    13  C   -2.157028  -1.427563  -0.063804  -3.673127  -0.415455  -0.001347
    14  C   -1.427563   0.910097  -0.011514  -1.517217  -0.514857   0.003113
    15  H   -0.063804  -0.011514   0.000020   0.001239   0.002662   0.000000
    16  C   -3.673127  -1.517217   0.001239  -2.156970  -0.295024   0.001070
    17  C   -0.415455  -0.514857   0.002662  -0.295024  -0.018699   0.000004
    18  H   -0.001347   0.003113   0.000000   0.001070   0.000004   0.000000
    19  C   -0.295028  -0.710640   0.009873  -0.415448  -0.011134  -0.000004
    20  H    0.001070  -0.010172  -0.000009  -0.001347  -0.000004  -0.000000
    21  C    1.503722   1.152302   0.001747   0.717752   0.057872   0.000072
    22  H    0.005989   0.004263   0.000002   0.003108   0.000068  -0.000000
    23  C    0.717763   1.322817   0.026288   1.503699   0.102013  -0.000088
    24  H   -0.053823   0.004263   0.000002   0.027075   0.006975  -0.000157
               7          8          9         10         11         12
     1  C    1.696406   0.014395  -3.667757   0.027074  -6.887440   0.003108
     2  C   -0.514850   0.003113   1.322807   0.044614   1.152280   0.044613
     3  H    0.002662   0.000000   0.026288   0.003968   0.001747   0.003968
     4  C    1.596087   0.013653  -6.887484  -0.053824  -3.667737   0.005988
     5  C    1.454216   0.009322  -1.609431   0.002608  -1.897779   0.000510
     6  H    0.009322  -0.005193   0.003958  -0.005665   0.010063   0.000000
     7  C    6.438739   0.265011  -1.897780   0.006975  -1.609394   0.000068
     8  H    0.265011   0.559052   0.010063  -0.000157   0.003958  -0.000000
     9  C   -1.897780   0.010063  12.165378   0.271145   4.373828   0.005465
    10  H    0.006975  -0.000157   0.271145   0.569048  -0.026306   0.000001
    11  C   -1.609394   0.003958   4.373828  -0.026306  12.165297   0.000071
    12  H    0.000068  -0.000000   0.005465   0.000001   0.000071   0.569047
    13  C   -0.295028   0.001070   1.503722   0.005989   0.717763  -0.053823
    14  C   -0.710640  -0.010172   1.152302   0.004263   1.322817   0.004263
    15  H    0.009873  -0.000009   0.001747   0.000002   0.026288   0.000002
    16  C   -0.415448  -0.001347   0.717752   0.003108   1.503699   0.027075
    17  C   -0.011134  -0.000004   0.057872   0.000068   0.102013   0.006975
    18  H   -0.000004  -0.000000   0.000072  -0.000000  -0.000088  -0.000157
    19  C   -0.018699   0.000004   0.102013   0.000510   0.057871   0.002609
    20  H    0.000004   0.000000  -0.000088   0.000000   0.000072  -0.005665
    21  C    0.102013  -0.000088  -0.535350   0.000071  -0.798893  -0.026306
    22  H    0.000510   0.000000   0.000071   0.000000   0.005464   0.000016
    23  C    0.057871   0.000072  -0.798893   0.005464  -0.535346   0.271144
    24  H    0.002609  -0.005665  -0.026306   0.000016   0.271144   0.000000
              13         14         15         16         17         18
     1  C   -2.157028  -1.427563  -0.063804  -3.673127  -0.415455  -0.001347
     2  C   -1.427563   0.910097  -0.011514  -1.517217  -0.514857   0.003113
     3  H   -0.063804  -0.011514   0.000020   0.001239   0.002662   0.000000
     4  C   -3.673127  -1.517217   0.001239  -2.156970  -0.295024   0.001070
     5  C   -0.415455  -0.514857   0.002662  -0.295024  -0.018699   0.000004
     6  H   -0.001347   0.003113   0.000000   0.001070   0.000004   0.000000
     7  C   -0.295028  -0.710640   0.009873  -0.415448  -0.011134  -0.000004
     8  H    0.001070  -0.010172  -0.000009  -0.001347  -0.000004  -0.000000
     9  C    1.503722   1.152302   0.001747   0.717752   0.057872   0.000072
    10  H    0.005989   0.004263   0.000002   0.003108   0.000068  -0.000000
    11  C    0.717763   1.322817   0.026288   1.503699   0.102013  -0.000088
    12  H   -0.053823   0.004263   0.000002   0.027075   0.006975  -0.000157
    13  C   16.449166  -1.517197   0.001238   3.993995   1.596094   0.013653
    14  C   -1.517197   8.126208   0.338471  -1.427533  -0.710638  -0.010172
    15  H    0.001238   0.338471   0.570624  -0.063805   0.009874  -0.000009
    16  C    3.993995  -1.427533  -0.063805  16.449126   1.696426   0.014395
    17  C    1.596094  -0.710638   0.009874   1.696426   6.438756   0.265011
    18  H    0.013653  -0.010172  -0.000009   0.014395   0.265011   0.559051
    19  C    1.696406  -0.514850   0.002662   1.596087   1.454216   0.009322
    20  H    0.014395   0.003113   0.000000   0.013653   0.009322  -0.005193
    21  C   -3.667757   1.322807   0.026288  -6.887484  -1.609431   0.003958
    22  H    0.027074   0.044614   0.003968  -0.053824   0.002608  -0.005665
    23  C   -6.887440   1.152280   0.001747  -3.667737  -1.897779   0.010063
    24  H    0.003108   0.044613   0.003968   0.005988   0.000510   0.000000
              19         20         21         22         23         24
     1  C   -0.295028   0.001070   1.503722   0.005989   0.717763  -0.053823
     2  C   -0.710640  -0.010172   1.152302   0.004263   1.322817   0.004263
     3  H    0.009873  -0.000009   0.001747   0.000002   0.026288   0.000002
     4  C   -0.415448  -0.001347   0.717752   0.003108   1.503699   0.027075
     5  C   -0.011134  -0.000004   0.057872   0.000068   0.102013   0.006975
     6  H   -0.000004  -0.000000   0.000072  -0.000000  -0.000088  -0.000157
     7  C   -0.018699   0.000004   0.102013   0.000510   0.057871   0.002609
     8  H    0.000004   0.000000  -0.000088   0.000000   0.000072  -0.005665
     9  C    0.102013  -0.000088  -0.535350   0.000071  -0.798893  -0.026306
    10  H    0.000510   0.000000   0.000071   0.000000   0.005464   0.000016
    11  C    0.057871   0.000072  -0.798893   0.005464  -0.535346   0.271144
    12  H    0.002609  -0.005665  -0.026306   0.000016   0.271144   0.000000
    13  C    1.696406   0.014395  -3.667757   0.027074  -6.887440   0.003108
    14  C   -0.514850   0.003113   1.322807   0.044614   1.152280   0.044613
    15  H    0.002662   0.000000   0.026288   0.003968   0.001747   0.003968
    16  C    1.596087   0.013653  -6.887484  -0.053824  -3.667737   0.005988
    17  C    1.454216   0.009322  -1.609431   0.002608  -1.897779   0.000510
    18  H    0.009322  -0.005193   0.003958  -0.005665   0.010063   0.000000
    19  C    6.438739   0.265011  -1.897780   0.006975  -1.609394   0.000068
    20  H    0.265011   0.559052   0.010063  -0.000157   0.003958  -0.000000
    21  C   -1.897780   0.010063  12.165378   0.271145   4.373828   0.005465
    22  H    0.006975  -0.000157   0.271145   0.569048  -0.026306   0.000001
    23  C   -1.609394   0.003958   4.373828  -0.026306  12.165297   0.000071
    24  H    0.000068  -0.000000   0.005465   0.000001   0.000071   0.569047
 Mulliken charges:
               1
     1  C    0.135897
     2  C   -0.056608
     3  H    0.138469
     4  C    0.135904
     5  C   -0.169390
     6  H    0.142924
     7  C   -0.169389
     8  H    0.142923
     9  C   -0.291395
    10  H    0.141028
    11  C   -0.291392
    12  H    0.141029
    13  C    0.135897
    14  C   -0.056608
    15  H    0.138469
    16  C    0.135904
    17  C   -0.169390
    18  H    0.142924
    19  C   -0.169389
    20  H    0.142923
    21  C   -0.291395
    22  H    0.141028
    23  C   -0.291392
    24  H    0.141029
 Sum of Mulliken charges =  -0.00000
 Mulliken charges with hydrogens summed into heavy atoms:
               1
     1  C    0.135897
     2  C    0.081861
     4  C    0.135904
     5  C   -0.026466
     7  C   -0.026466
     9  C   -0.150367
    11  C   -0.150364
    13  C    0.135897
    14  C    0.081861
    16  C    0.135904
    17  C   -0.026466
    19  C   -0.026466
    21  C   -0.150367
    23  C   -0.150364
 Electronic spatial extent (au):  <R**2>=           2891.5563
 Charge=              0.0000 electrons
 Dipole moment (field-independent basis, Debye):
    X=             -0.0000    Y=              0.0000    Z=              0.0000  Tot=              0.0000
 Quadrupole moment (field-independent basis, Debye-Ang):
   XX=            -71.3828   YY=            -71.8643   ZZ=            -88.9668
   XY=             -0.0000   XZ=              0.0000   YZ=              0.0000
 Traceless Quadrupole moment (field-independent basis, Debye-Ang):
   XX=              6.0219   YY=              5.5403   ZZ=            -11.5622
   XY=             -0.0000   XZ=              0.0000   YZ=              0.0000
 Octapole moment (field-independent basis, Debye-Ang**2):
  XXX=              0.0000  YYY=              0.0000  ZZZ=              0.0000  XYY=             -0.0000
  XXY=             -0.0000  XXZ=              0.0000  XZZ=             -0.0000  YZZ=             -0.0000
  YYZ=              0.0000  XYZ=              0.0000
 Hexadecapole moment (field-independent basis, Debye-Ang**3):
 XXXX=          -2896.0927 YYYY=           -718.1578 ZZZZ=           -109.6620 XXXY=              0.0006
 XXXZ=              0.0000 YYYX=              0.0011 YYYZ=              0.0000 ZZZX=              0.0000
 ZZZY=              0.0000 XXYY=           -614.8511 XXZZ=           -626.8830 YYZZ=           -167.3331
 XXYZ=              0.0000 YYXZ=              0.0000 ZZXY=              0.0004
 N-N= 7.613683105068D+02 E-N=-2.770076538749D+03  KE= 5.333807050797D+02
 Symmetry AG   KE= 2.589612399936D+02
 Symmetry BG   KE= 8.819637402463D+00
 Symmetry AU   KE= 6.111843498330D+00
 Symmetry BU   KE= 2.594879841855D+02
 There are a total of      199580 grid points.
 ElSum from          density=       94.0001727931
 ElSum from atomic densities=       93.9999688395

 Hirshfeld populations at iteration   1 (CX, CA, CB, DipXYZ):
               1          2          3          4          5          6
     1  C    0.000000   3.001644   3.001644   0.013423  -0.020318  -0.000000
     2  C    0.000001   3.020680   3.020680  -0.000000  -0.035101  -0.000000
     3  H    0.000001   0.478190   0.478190   0.000000  -0.143350  -0.000000
     4  C    0.000000   3.001644   3.001644   0.013423   0.020318  -0.000000
     5  C    0.000001   3.022832   3.022832   0.058222   0.002766  -0.000000
     6  H    0.000004   0.477282   0.477282   0.131495  -0.072846  -0.000000
     7  C    0.000001   3.022832   3.022832   0.058221  -0.002766  -0.000000
     8  H    0.000004   0.477282   0.477282   0.131495   0.072845  -0.000000
     9  C    0.000001   3.021215   3.021215  -0.032852  -0.042955  -0.000000
    10  H    0.000003   0.477613   0.477613   0.003420  -0.146657   0.000000
    11  C    0.000001   3.021215   3.021215  -0.032852   0.042955   0.000000
    12  H    0.000003   0.477613   0.477613  -0.003421  -0.146658   0.000000
    13  C    0.000000   3.001644   3.001644  -0.013423   0.020318  -0.000000
    14  C    0.000001   3.020680   3.020680   0.000000   0.035101  -0.000000
    15  H    0.000001   0.478190   0.478190  -0.000000   0.143350   0.000000
    16  C    0.000000   3.001644   3.001644  -0.013423  -0.020318  -0.000000
    17  C    0.000001   3.022832   3.022832  -0.058222  -0.002766  -0.000000
    18  H    0.000004   0.477282   0.477282  -0.131495   0.072846  -0.000000
    19  C    0.000001   3.022832   3.022832  -0.058221   0.002766  -0.000000
    20  H    0.000004   0.477282   0.477282  -0.131495  -0.072845  -0.000000
    21  C    0.000001   3.021215   3.021215   0.032852   0.042955  -0.000000
    22  H    0.000003   0.477613   0.477613  -0.003420   0.146657  -0.000000
    23  C    0.000001   3.021215   3.021215   0.032852  -0.042955   0.000000
    24  H    0.000003   0.477613   0.477613   0.003421   0.146658   0.000000
       Tot   0.000037  47.000086  47.000086   0.000000   0.000000  -0.000000

 Dip from Atomic Chgs              0.000000   0.000000   0.000000
         Total Dipole              0.000000   0.000000  -0.000000

 Hirshfeld charges, spin densities, dipoles, and CM5 charges using IRadAn=      4:
              Q-H        S-H        Dx         Dy         Dz        Q-CM5   
     1  C   -0.003288   0.000000   0.013423  -0.020318  -0.000000  -0.010333
     2  C   -0.041361   0.000000  -0.000000  -0.035101  -0.000000  -0.090147
     3  H    0.043620   0.000000   0.000000  -0.143350  -0.000000   0.099413
     4  C   -0.003288   0.000000   0.013423   0.020318  -0.000000  -0.010333
     5  C   -0.045664   0.000000   0.058222   0.002766  -0.000000  -0.099702
     6  H    0.045436   0.000000   0.131495  -0.072846  -0.000000   0.099687
     7  C   -0.045664   0.000000   0.058221  -0.002766  -0.000000  -0.099702
     8  H    0.045435   0.000000   0.131495   0.072845  -0.000000   0.099686
     9  C   -0.042429   0.000000  -0.032852  -0.042955  -0.000000  -0.094090
    10  H    0.044773   0.000000   0.003420  -0.146657   0.000000   0.099762
    11  C   -0.042430   0.000000  -0.032852   0.042955   0.000000  -0.094090
    12  H    0.044773   0.000000  -0.003421  -0.146658   0.000000   0.099763
    13  C   -0.003288   0.000000  -0.013423   0.020318  -0.000000  -0.010333
    14  C   -0.041361   0.000000   0.000000   0.035101  -0.000000  -0.090147
    15  H    0.043620   0.000000  -0.000000   0.143350   0.000000   0.099413
    16  C   -0.003288   0.000000  -0.013423  -0.020318  -0.000000  -0.010333
    17  C   -0.045664   0.000000  -0.058222  -0.002766  -0.000000  -0.099702
    18  H    0.045436   0.000000  -0.131495   0.072846  -0.000000   0.099687
    19  C   -0.045664   0.000000  -0.058221   0.002766  -0.000000  -0.099702
    20  H    0.045435   0.000000  -0.131495  -0.072845  -0.000000   0.099686
    21  C   -0.042429   0.000000   0.032852   0.042955  -0.000000  -0.094090
    22  H    0.044773   0.000000  -0.003420   0.146657  -0.000000   0.099762
    23  C   -0.042430   0.000000   0.032852  -0.042955   0.000000  -0.094090
    24  H    0.044773   0.000000   0.003421   0.146658   0.000000   0.099763
       Tot  -0.000173   0.000000   0.000000   0.000000  -0.000000  -0.000173
 Hirshfeld charges with hydrogens summed into heavy atoms:
              Q-H       Q-CM5   
     1  C   -0.003288  -0.010333
     2  C    0.002260   0.009265
     4  C   -0.003288  -0.010333
     5  C   -0.000229  -0.000015
     7  C   -0.000229  -0.000015
     9  C    0.002344   0.005673
    11  C    0.002344   0.005672
    13  C   -0.003288  -0.010333
    14  C    0.002260   0.009265
    16  C   -0.003288  -0.010333
    17  C   -0.000229  -0.000015
    19  C   -0.000229  -0.000015
    21  C    0.002344   0.005673
    23  C    0.002344   0.005672
 
 EQQ=  0.00000000000     EQD=  0.00000000000     EDD= 0.829623232523E-02
 EQQ+QD+DD= 0.829623232523E-02
 
 Orbital energies and kinetic energies (alpha):
                                 1                 2
  43         (AU)--O          -0.276520          1.036172
  44         (BG)--O          -0.272260          1.064854
  45         (AU)--O          -0.235606          1.123129
  46         (BG)--O          -0.224767          1.170772
  47         (BG)--O          -0.181438          1.226316
  48         (AU)--V          -0.096664          1.319435
  49         (AU)--V          -0.050707          1.395279
  50         (BG)--V          -0.038592          1.355460
  51         (AU)--V          -0.015409          1.070893
  52         (AG)--V          -0.006724          0.372242
 Total kinetic energy from orbitals= 5.333807050797D+02
 No NMR shielding tensors so no spin-rotation constants.
 Leave Link  601 at Thu Dec 26 16:59:40 2024, MaxMem=   104857600 cpu:              21.0 elap:               2.1
 (Enter /cm/shared/uniol/sw/SYSTEM/gaussian/g16.c01/g16/l9999.exe)

 Test job not archived.
 1\1\GINC-MPCS030\SP\RPBEPBE\6-31+G(d,p)\C14H10\TOXO0610\26-Dec-2024\0\
 \#p pbepbe/6-31+G** pop=regular scf=tight int=finegrid pop=Hirshfeld\\
 orbitals calculation\\0,1\C,0,-0.726956,1.230488,0.\C,0,1.411458,0.000
 001,0.\H,0,2.508008,0.000003,0.\C,0,0.726954,1.230487,0.\C,0,0.714918,
 3.679673,0.\H,0,1.253945,4.632034,0.\C,0,-0.714916,3.679672,0.\H,0,-1.
 253943,4.632034,0.\C,0,1.4138,2.488632,0.\H,0,2.509279,2.486396,0.\C,0
 ,-1.4138,2.488633,0.\H,0,2.509279,-2.486402,0.\C,0,0.726956,-1.230488,
 0.\C,0,-1.411458,-0.000001,0.\H,0,-2.508008,-0.000003,0.\C,0,-0.726954
 ,-1.230487,0.\C,0,-0.714918,-3.679673,0.\H,0,-1.253945,-4.632034,0.\C,
 0,0.714916,-3.679672,0.\H,0,1.253943,-4.632034,0.\C,0,-1.4138,-2.48863
 2,0.\H,0,-2.509279,-2.486396,0.\C,0,1.4138,-2.488633,0.\H,0,-2.509279,
 2.486402,0.\\Version=ES64L-G16RevC.01\State=1-AG\HF=-538.8671664\RMSD=
 1.801e-09\Dipole=0.,0.,0.\Quadrupole=4.119082,4.4771106,-8.5961926,0.0
 000027,0.,0.\PG=C02H [SGH(C14H10)]\\@


 THE FIRST MORNING OF CREATION WROTE WHAT THE LAST DAWN OF
 RECKONING SHALL READ. -- OMAR KHAYYAM
 Job cpu time:       0 days  0 hours  1 minutes 40.6 seconds.
 Elapsed time:       0 days  0 hours  0 minutes  8.3 seconds.
 File lengths (MBytes):  RWF=    168 Int=      0 D2E=      0 Chk=     16 Scr=     16
 Normal termination of Gaussian 16 at Thu Dec 26 16:59:40 2024.
