 Entering Gaussian System, Link 0=g16
 Initial command:
 /cm/shared/uniol/sw/SYSTEM/gaussian/g16.c01/g16/l1.exe "/fs/dss/home/toxo0610/Anthracen/04/Gau-1121179.inp" -scrdir="/fs/dss/home/toxo0610/Anthracen/04/"
 Entering Link 1 = /cm/shared/uniol/sw/SYSTEM/gaussian/g16.c01/g16/l1.exe PID=   1121180.
  
 Copyright (c) 1988-2019, Gaussian, Inc.  All Rights Reserved.
  
 This is part of the Gaussian(R) 16 program.  It is based on
 the Gaussian(R) 09 system (copyright 2009, Gaussian, Inc.),
 the Gaussian(R) 03 system (copyright 2003, Gaussian, Inc.),
 the Gaussian(R) 98 system (copyright 1998, Gaussian, Inc.),
 the Gaussian(R) 94 system (copyright 1995, Gaussian, Inc.),
 the Gaussian 92(TM) system (copyright 1992, Gaussian, Inc.),
 the Gaussian 90(TM) system (copyright 1990, Gaussian, Inc.),
 the Gaussian 88(TM) system (copyright 1988, Gaussian, Inc.),
 the Gaussian 86(TM) system (copyright 1986, Carnegie Mellon
 University), and the Gaussian 82(TM) system (copyright 1983,
 Carnegie Mellon University). Gaussian is a federally registered
 trademark of Gaussian, Inc.
  
 This software contains proprietary and confidential information,
 including trade secrets, belonging to Gaussian, Inc.
  
 This software is provided under written license and may be
 used, copied, transmitted, or stored only in accord with that
 written license.
  
 The following legend is applicable only to US Government
 contracts under FAR:
  
                    RESTRICTED RIGHTS LEGEND
  
 Use, reproduction and disclosure by the US Government is
 subject to restrictions as set forth in subparagraphs (a)
 and (c) of the Commercial Computer Software - Restricted
 Rights clause in FAR 52.227-19.
  
 Gaussian, Inc.
 340 Quinnipiac St., Bldg. 40, Wallingford CT 06492
  
  
 ---------------------------------------------------------------
 Warning -- This program may not be used in any manner that
 competes with the business of Gaussian, Inc. or will provide
 assistance to any competitor of Gaussian, Inc.  The licensee
 of this program is prohibited from giving any competitor of
 Gaussian, Inc. access to this program.  By using this program,
 the user acknowledges that Gaussian, Inc. is engaged in the
 business of creating and licensing software in the field of
 computational chemistry and represents and warrants to the
 licensee that it is not a competitor of Gaussian, Inc. and that
 it will not use this program in any manner prohibited above.
 ---------------------------------------------------------------
  

 Cite this work as:
 Gaussian 16, Revision C.01,
 M. J. Frisch, G. W. Trucks, H. B. Schlegel, G. E. Scuseria, 
 M. A. Robb, J. R. Cheeseman, G. Scalmani, V. Barone, 
 G. A. Petersson, H. Nakatsuji, X. Li, M. Caricato, A. V. Marenich, 
 J. Bloino, B. G. Janesko, R. Gomperts, B. Mennucci, H. P. Hratchian, 
 J. V. Ortiz, A. F. Izmaylov, J. L. Sonnenberg, D. Williams-Young, 
 F. Ding, F. Lipparini, F. Egidi, J. Goings, B. Peng, A. Petrone, 
 T. Henderson, D. Ranasinghe, V. G. Zakrzewski, J. Gao, N. Rega, 
 G. Zheng, W. Liang, M. Hada, M. Ehara, K. Toyota, R. Fukuda, 
 J. Hasegawa, M. Ishida, T. Nakajima, Y. Honda, O. Kitao, H. Nakai, 
 T. Vreven, K. Throssell, J. A. Montgomery, Jr., J. E. Peralta, 
 F. Ogliaro, M. J. Bearpark, J. J. Heyd, E. N. Brothers, K. N. Kudin, 
 V. N. Staroverov, T. A. Keith, R. Kobayashi, J. Normand, 
 K. Raghavachari, A. P. Rendell, J. C. Burant, S. S. Iyengar, 
 J. Tomasi, M. Cossi, J. M. Millam, M. Klene, C. Adamo, R. Cammi, 
 J. W. Ochterski, R. L. Martin, K. Morokuma, O. Farkas, 
 J. B. Foresman, and D. J. Fox, Gaussian, Inc., Wallingford CT, 2019.
 
 ******************************************
 Gaussian 16:  ES64L-G16RevC.01  3-Jul-2019
                26-Dec-2024 
 ******************************************
 %NprocShared=16
 Will use up to   16 processors via shared memory.
 Default route: Test
 -----------------------------------------------------------------
 #p pbepbe/STO-3G pop=regular scf=tight int=finegrid pop=Hirshfeld
 -----------------------------------------------------------------
 1/38=1,172=1/1;
 2/12=2,17=6,18=5,40=1/2;
 3/6=3,11=2,25=1,30=1,74=1009,75=-4/1,2,3;
 4//1;
 5/5=2,32=2,38=5/2;
 6/28=1,79=1/1;
 99/5=1,9=1/99;
 Leave Link    1 at Thu Dec 26 16:59:42 2024, MaxMem=           0 cpu:               3.1 elap:               0.3
 (Enter /cm/shared/uniol/sw/SYSTEM/gaussian/g16.c01/g16/l101.exe)
 --------------------
 orbitals calculation
 --------------------
 Symbolic Z-matrix:
 Charge =  0 Multiplicity = 1
 C                    -0.72696   1.23049   0. 
 C                     1.41146   0.        0. 
 H                     2.50801   0.        0. 
 C                     0.72695   1.23049   0. 
 C                     0.71492   3.67967   0. 
 H                     1.25395   4.63203   0. 
 C                    -0.71492   3.67967   0. 
 H                    -1.25394   4.63203   0. 
 C                     1.4138    2.48863   0. 
 H                     2.50928   2.4864    0. 
 C                    -1.4138    2.48863   0. 
 H                     2.50928  -2.4864    0. 
 C                     0.72696  -1.23049   0. 
 C                    -1.41146  0.         0. 
 H                    -2.50801  0.         0. 
 C                    -0.72695  -1.23049   0. 
 C                    -0.71492  -3.67967   0. 
 H                    -1.25395  -4.63203   0. 
 C                     0.71492  -3.67967   0. 
 H                     1.25394  -4.63203   0. 
 C                    -1.4138   -2.48863   0. 
 H                    -2.50928  -2.4864    0. 
 C                     1.4138   -2.48863   0. 
 H                    -2.50928   2.4864    0. 
 
 ITRead=  0  0  0  0  0  0  0  0  0  0  0  0  0  0  0  0  0  0  0  0
 ITRead=  0  0  0  0
 MicOpt= -1 -1 -1 -1 -1 -1 -1 -1 -1 -1 -1 -1 -1 -1 -1 -1 -1 -1 -1 -1
 MicOpt= -1 -1 -1 -1
 NAtoms=     24 NQM=       24 NQMF=       0 NMMI=      0 NMMIF=      0
                NMic=       0 NMicF=      0.
                    Isotopes and Nuclear Properties:
 (Nuclear quadrupole moments (NQMom) in fm**2, nuclear magnetic moments (NMagM)
  in nuclear magnetons)

  Atom         1           2           3           4           5           6           7           8           9          10
 IAtWgt=          12          12           1          12          12           1          12           1          12           1
 AtmWgt=  12.0000000  12.0000000   1.0078250  12.0000000  12.0000000   1.0078250  12.0000000   1.0078250  12.0000000   1.0078250
 NucSpn=           0           0           1           0           0           1           0           1           0           1
 AtZEff=  -0.0000000  -0.0000000  -0.0000000  -0.0000000  -0.0000000  -0.0000000  -0.0000000  -0.0000000  -0.0000000  -0.0000000
 NQMom=    0.0000000   0.0000000   0.0000000   0.0000000   0.0000000   0.0000000   0.0000000   0.0000000   0.0000000   0.0000000
 NMagM=    0.0000000   0.0000000   2.7928460   0.0000000   0.0000000   2.7928460   0.0000000   2.7928460   0.0000000   2.7928460
 AtZNuc=   6.0000000   6.0000000   1.0000000   6.0000000   6.0000000   1.0000000   6.0000000   1.0000000   6.0000000   1.0000000

  Atom        11          12          13          14          15          16          17          18          19          20
 IAtWgt=          12           1          12          12           1          12          12           1          12           1
 AtmWgt=  12.0000000   1.0078250  12.0000000  12.0000000   1.0078250  12.0000000  12.0000000   1.0078250  12.0000000   1.0078250
 NucSpn=           0           1           0           0           1           0           0           1           0           1
 AtZEff=  -0.0000000  -0.0000000  -0.0000000  -0.0000000  -0.0000000  -0.0000000  -0.0000000  -0.0000000  -0.0000000  -0.0000000
 NQMom=    0.0000000   0.0000000   0.0000000   0.0000000   0.0000000   0.0000000   0.0000000   0.0000000   0.0000000   0.0000000
 NMagM=    0.0000000   2.7928460   0.0000000   0.0000000   2.7928460   0.0000000   0.0000000   2.7928460   0.0000000   2.7928460
 AtZNuc=   6.0000000   1.0000000   6.0000000   6.0000000   1.0000000   6.0000000   6.0000000   1.0000000   6.0000000   1.0000000

  Atom        21          22          23          24
 IAtWgt=          12           1          12           1
 AtmWgt=  12.0000000   1.0078250  12.0000000   1.0078250
 NucSpn=           0           1           0           1
 AtZEff=  -0.0000000  -0.0000000  -0.0000000  -0.0000000
 NQMom=    0.0000000   0.0000000   0.0000000   0.0000000
 NMagM=    0.0000000   2.7928460   0.0000000   2.7928460
 AtZNuc=   6.0000000   1.0000000   6.0000000   1.0000000
 Leave Link  101 at Thu Dec 26 16:59:42 2024, MaxMem=   104857600 cpu:               0.9 elap:               0.1
 (Enter /cm/shared/uniol/sw/SYSTEM/gaussian/g16.c01/g16/l202.exe)
                          Input orientation:                          
 ---------------------------------------------------------------------
 Center     Atomic      Atomic             Coordinates (Angstroms)
 Number     Number       Type             X           Y           Z
 ---------------------------------------------------------------------
      1          6           0       -0.726956    1.230488    0.000000
      2          6           0        1.411458    0.000001    0.000000
      3          1           0        2.508008    0.000003    0.000000
      4          6           0        0.726954    1.230487    0.000000
      5          6           0        0.714918    3.679673    0.000000
      6          1           0        1.253945    4.632034    0.000000
      7          6           0       -0.714916    3.679672    0.000000
      8          1           0       -1.253943    4.632034    0.000000
      9          6           0        1.413800    2.488632    0.000000
     10          1           0        2.509279    2.486396    0.000000
     11          6           0       -1.413800    2.488633    0.000000
     12          1           0        2.509279   -2.486402    0.000000
     13          6           0        0.726956   -1.230488    0.000000
     14          6           0       -1.411458   -0.000001    0.000000
     15          1           0       -2.508008   -0.000003    0.000000
     16          6           0       -0.726954   -1.230487    0.000000
     17          6           0       -0.714918   -3.679673    0.000000
     18          1           0       -1.253945   -4.632034    0.000000
     19          6           0        0.714916   -3.679672    0.000000
     20          1           0        1.253943   -4.632034    0.000000
     21          6           0       -1.413800   -2.488632    0.000000
     22          1           0       -2.509279   -2.486396    0.000000
     23          6           0        1.413800   -2.488633    0.000000
     24          1           0       -2.509279    2.486402    0.000000
 ---------------------------------------------------------------------
                    Distance matrix (angstroms):
                    1          2          3          4          5
     1  C    0.000000
     2  C    2.467167   0.000000
     3  H    3.461082   1.096550   0.000000
     4  C    1.453910   1.408063   2.164773   0.000000
     5  C    2.842096   3.745017   4.093305   2.449216   0.000000
     6  H    3.936303   4.634710   4.798790   3.442127   1.094322
     7  C    2.449214   4.249876   4.891544   2.842094   1.429834
     8  H    3.442126   5.344164   5.967243   3.936302   2.187100
     9  C    2.483095   2.488632   2.718559   1.433418   1.380947
    10  H    3.471386   2.717972   2.486393   2.180365   2.154911
    11  C    1.433417   3.765020   4.644767   2.483095   2.439266
    12  H    4.928335   2.717979   2.486405   4.122129   6.421854
    13  C    2.858367   1.408065   2.164776   2.460975   4.910176
    14  C    1.408065   2.822916   3.919466   2.467166   4.249879
    15  H    2.164776   3.919466   5.016016   3.461081   4.891551
    16  C    2.460975   2.467166   3.461081   2.858363   5.117486
    17  C    4.910176   4.249879   4.891551   5.117486   7.496960
    18  H    5.886160   5.344167   5.967249   6.188143   8.541715
    19  C    5.117486   3.745019   4.093310   4.910174   7.359345
    20  H    6.188144   4.634712   4.798796   5.886159   8.329167
    21  C    3.782011   3.765020   4.644769   4.291232   6.525291
    22  H    4.122123   4.642666   5.599585   4.928329   6.958150
    23  C    4.291235   2.488635   2.718566   3.782012   6.207772
    24  H    2.180366   4.642668   5.599585   3.471387   3.437927
                    6          7          8          9         10
     6  H    0.000000
     7  C    2.187100   0.000000
     8  H    2.507888   1.094323   0.000000
     9  C    2.149355   2.439264   3.422137   0.000000
    10  H    2.485885   3.437927   4.331928   1.095481   0.000000
    11  C    3.422138   1.380946   2.149354   2.827600   3.923080
    12  H    7.228277   6.958154   8.051954   5.094216   4.972798
    13  C    5.886160   5.117486   6.188144   3.782011   4.122123
    14  C    5.344167   3.745019   4.634712   3.765020   4.642666
    15  H    5.967249   4.093310   4.798796   4.644769   5.599585
    16  C    6.188143   4.910174   5.886159   4.291232   4.928329
    17  C    8.541715   7.359345   8.329167   6.525291   6.958150
    18  H    9.597524   8.329166   9.264068   7.603996   8.051950
    19  C    8.329166   7.496957   8.541713   6.207770   6.421848
    20  H    9.264068   8.541713   9.597523   7.122460   7.228272
    21  C    7.603996   6.207770   7.122460   5.724376   6.335728
    22  H    8.051950   6.421848   7.228272   6.335728   7.065025
    23  C    7.122461   6.525291   7.603996   4.977265   5.094211
    24  H    4.331927   2.154909   2.485881   3.923080   5.018558
                   11         12         13         14         15
    11  C    0.000000
    12  H    6.335734   0.000000
    13  C    4.291235   2.180366   0.000000
    14  C    2.488635   4.642668   2.467167   0.000000
    15  H    2.718566   5.599585   3.461082   1.096550   0.000000
    16  C    3.782012   3.471387   1.453910   1.408063   2.164773
    17  C    6.207772   3.437927   2.842096   3.745017   4.093305
    18  H    7.122461   4.331927   3.936303   4.634710   4.798790
    19  C    6.525291   2.154909   2.449214   4.249876   4.891544
    20  H    7.603996   2.485881   3.442126   5.344164   5.967243
    21  C    4.977265   3.923080   2.483095   2.488632   2.718559
    22  H    5.094211   5.018558   3.471386   2.717972   2.486393
    23  C    5.724378   1.095481   1.433417   3.765020   4.644767
    24  H    1.095481   7.065034   4.928335   2.717979   2.486405
                   16         17         18         19         20
    16  C    0.000000
    17  C    2.449216   0.000000
    18  H    3.442127   1.094322   0.000000
    19  C    2.842094   1.429834   2.187100   0.000000
    20  H    3.936302   2.187100   2.507888   1.094323   0.000000
    21  C    1.433418   1.380947   2.149355   2.439264   3.422137
    22  H    2.180365   2.154911   2.485885   3.437927   4.331928
    23  C    2.483095   2.439266   3.422138   1.380946   2.149354
    24  H    4.122129   6.421854   7.228277   6.958154   8.051954
                   21         22         23         24
    21  C    0.000000
    22  H    1.095481   0.000000
    23  C    2.827600   3.923080   0.000000
    24  H    5.094216   4.972798   6.335734   0.000000
 Stoichiometry    C14H10
 Framework group  C2H[SGH(C14H10)]
 Deg. of freedom    23
 Full point group                 C2H     NOp   4
 Largest Abelian subgroup         C2H     NOp   4
 Largest concise Abelian subgroup C2      NOp   2
                         Standard orientation:                         
 ---------------------------------------------------------------------
 Center     Atomic      Atomic             Coordinates (Angstroms)
 Number     Number       Type             X           Y           Z
 ---------------------------------------------------------------------
      1          6           0        1.230489    0.726955    0.000000
      2          6           0        0.000000   -1.411458    0.000000
      3          1           0        0.000001   -2.508008    0.000000
      4          6           0        1.230486   -0.726955    0.000000
      5          6           0        3.679672   -0.714921    0.000000
      6          1           0        4.632033   -1.253948    0.000000
      7          6           0        3.679672    0.714913    0.000000
      8          1           0        4.632035    1.253940    0.000000
      9          6           0        2.488631   -1.413802    0.000000
     10          1           0        2.486394   -2.509281    0.000000
     11          6           0        2.488634    1.413798    0.000000
     12          1           0       -2.486404   -2.509277    0.000000
     13          6           0       -1.230489   -0.726955    0.000000
     14          6           0       -0.000000    1.411458    0.000000
     15          1           0       -0.000001    2.508008    0.000000
     16          6           0       -1.230486    0.726955    0.000000
     17          6           0       -3.679672    0.714921    0.000000
     18          1           0       -4.632033    1.253948    0.000000
     19          6           0       -3.679672   -0.714913    0.000000
     20          1           0       -4.632035   -1.253940    0.000000
     21          6           0       -2.488631    1.413802    0.000000
     22          1           0       -2.486394    2.509281    0.000000
     23          6           0       -2.488634   -1.413798    0.000000
     24          1           0        2.486404    2.509277    0.000000
 ---------------------------------------------------------------------
 Rotational constants (GHZ):           2.1229353           0.4467277           0.3690655
 Leave Link  202 at Thu Dec 26 16:59:42 2024, MaxMem=   104857600 cpu:               1.6 elap:               0.3
 (Enter /cm/shared/uniol/sw/SYSTEM/gaussian/g16.c01/g16/l301.exe)
 Standard basis: STO-3G (5D, 7F)
 Ernie: Thresh=  0.10000D-02 Tol=  0.10000D-05 Strict=F.
 There are    33 symmetry adapted cartesian basis functions of AG  symmetry.
 There are     7 symmetry adapted cartesian basis functions of BG  symmetry.
 There are     7 symmetry adapted cartesian basis functions of AU  symmetry.
 There are    33 symmetry adapted cartesian basis functions of BU  symmetry.
 There are    33 symmetry adapted basis functions of AG  symmetry.
 There are     7 symmetry adapted basis functions of BG  symmetry.
 There are     7 symmetry adapted basis functions of AU  symmetry.
 There are    33 symmetry adapted basis functions of BU  symmetry.
    80 basis functions,   240 primitive gaussians,    80 cartesian basis functions
    47 alpha electrons       47 beta electrons
       nuclear repulsion energy       761.3683105068 Hartrees.
 IExCor= 1009 DFT=T Ex=PBE Corr=PBE ExCW=0 ScaHFX=  0.000000
 ScaDFX=  1.000000  1.000000  1.000000  1.000000 ScalE2=  1.000000  1.000000
 IRadAn=      4 IRanWt=     -1 IRanGd=            0 ICorTp=0 IEmpDi=  4
 NAtoms=   24 NActive=   24 NUniq=   12 SFac= 4.00D+00 NAtFMM=   60 NAOKFM=F Big=F
 Integral buffers will be    131072 words long.
 Raffenetti 2 integral format.
 Two-electron integral symmetry is turned on.
 Leave Link  301 at Thu Dec 26 16:59:42 2024, MaxMem=   104857600 cpu:               0.7 elap:               0.1
 (Enter /cm/shared/uniol/sw/SYSTEM/gaussian/g16.c01/g16/l302.exe)
 NPDir=0 NMtPBC=     1 NCelOv=     1 NCel=       1 NClECP=     1 NCelD=      1
         NCelK=      1 NCelE2=     1 NClLst=     1 CellRange=     0.0.
 One-electron integrals computed using PRISM.
 One-electron integral symmetry used in STVInt
 NBasis=    80 RedAO= T EigKep=  1.77D-01  NBF=    33     7     7    33
 NBsUse=    80 1.00D-06 EigRej= -1.00D+00 NBFU=    33     7     7    33
 Precomputing XC quadrature grid using
 IXCGrd= 4 IRadAn=           4 IRanWt=          -1 IRanGd=           0 AccXCQ= 0.00D+00.
 Generated NRdTot=       0 NPtTot=           0 NUsed=           0 NTot=          32
 NSgBfM=    79    79    79    79    79 MxSgAt=    24 MxSgA2=    24.
 Leave Link  302 at Thu Dec 26 16:59:43 2024, MaxMem=   104857600 cpu:               7.6 elap:               0.7
 (Enter /cm/shared/uniol/sw/SYSTEM/gaussian/g16.c01/g16/l303.exe)
 DipDrv:  MaxL=1.
 Leave Link  303 at Thu Dec 26 16:59:43 2024, MaxMem=   104857600 cpu:               1.3 elap:               0.2
 (Enter /cm/shared/uniol/sw/SYSTEM/gaussian/g16.c01/g16/l401.exe)
 ExpMin= 1.69D-01 ExpMax= 7.16D+01 ExpMxC= 7.16D+01 IAcc=2 IRadAn=         4 AccDes= 0.00D+00
 Harris functional with IExCor= 1009 and IRadAn=       4 diagonalized for initial guess.
 HarFok:  IExCor= 1009 AccDes= 0.00D+00 IRadAn=         4 IDoV= 1 UseB2=F ITyADJ=14
 ICtDFT=  3500011 ScaDFX=  1.000000  1.000000  1.000000  1.000000
 FoFCou: FMM=F IPFlag=           0 FMFlag=      100000 FMFlg1=           0
         NFxFlg=           0 DoJE=T BraDBF=F KetDBF=T FulRan=T
         wScrn=  0.000000 ICntrl=       500 IOpCl=  0 I1Cent=   200000004 NGrid=           0
         NMat0=    1 NMatS0=      1 NMatT0=    0 NMatD0=    1 NMtDS0=    0 NMtDT0=    0
 Petite list used in FoFCou.
 Harris En= -532.348504738436    
 JPrj=0 DoOrth=F DoCkMO=F.
 Initial guess orbital symmetries:
       Occupied  (BU) (AG) (AG) (BU) (BU) (AG) (AG) (BU) (BU) (AG)
                 (AG) (BU) (BU) (AG) (AG) (BU) (AG) (BU) (AG) (BU)
                 (BU) (AG) (AG) (AG) (BU) (BU) (BU) (AG) (AG) (AG)
                 (BU) (BU) (AG) (BU) (BU) (AG) (AU) (BU) (BG) (BU)
                 (AG) (AG) (AU) (BG) (AU) (BG) (BG)
       Virtual   (AU) (AU) (BG) (AU) (BG) (AU) (BG) (BU) (AG) (BU)
                 (AG) (BU) (AG) (AG) (AG) (BU) (BU) (AG) (BU) (BU)
                 (AG) (AG) (BU) (BU) (AG) (BU) (AG) (AG) (BU) (AG)
                 (BU) (AG) (BU)
 The electronic state of the initial guess is 1-AG.
 Leave Link  401 at Thu Dec 26 16:59:44 2024, MaxMem=   104857600 cpu:               4.9 elap:               0.5
 (Enter /cm/shared/uniol/sw/SYSTEM/gaussian/g16.c01/g16/l502.exe)
 Integral symmetry usage will be decided dynamically.
 Closed shell SCF:
 Using DIIS extrapolation, IDIIS=  1040.
 NGot=   104857600 LenX=   104840902 LenY=   104834061
 Requested convergence on RMS density matrix=1.00D-08 within 128 cycles.
 Requested convergence on MAX density matrix=1.00D-06.
 Requested convergence on             energy=1.00D-06.
 No special actions if energy rises.
 Fock matrices will be formed incrementally for  20 cycles.
 Integral accuracy reduced to 1.0D-05 until final iterations.

 Cycle   1  Pass 0  IDiag  1:
 FoFJK:  IHMeth= 1 ICntrl=     500 DoSepK=F KAlg= 0 I1Cent=           0 FoldK=F
 IRaf= 880000000 NMat=       1 IRICut=       1 DoRegI=T DoRafI=F ISym2E= 1 IDoP0=0 IntGTp=1.
 FoFCou: FMM=F IPFlag=           0 FMFlag=      100000 FMFlg1=           0
         NFxFlg=           0 DoJE=T BraDBF=F KetDBF=F FulRan=T
         wScrn=  0.000000 ICntrl=       500 IOpCl=  0 I1Cent=           0 NGrid=           0
         NMat0=    1 NMatS0=      1 NMatT0=    0 NMatD0=    1 NMtDS0=    0 NMtDT0=    0
 Petite list used in FoFCou.
 E= -532.227125384626    
 DIIS: error= 2.21D-02 at cycle   1 NSaved=   1.
 NSaved= 1 IEnMin= 1 EnMin= -532.227125384626     IErMin= 1 ErrMin= 2.21D-02
 ErrMax= 2.21D-02  0.00D+00 EMaxC= 1.00D-01 BMatC= 3.74D-02 BMatP= 3.74D-02
 IDIUse=3 WtCom= 7.79D-01 WtEn= 2.21D-01
 Coeff-Com:  0.100D+01
 Coeff-En:   0.100D+01
 Coeff:      0.100D+01
 Gap=     0.101 Goal=   None    Shift=    0.000
 GapD=    0.101 DampG=1.000 DampE=0.500 DampFc=0.5000 IDamp=-1.
 Damping current iteration by 5.00D-01
 RMSDP=6.84D-03 MaxDP=1.05D-01              OVMax= 5.79D-03

 Cycle   2  Pass 0  IDiag  1:
 RMSU=  3.41D-03    CP:  9.97D-01
 E= -532.256815369359     Delta-E=       -0.029689984733 Rises=F Damp=T
 DIIS: error= 3.66D-03 at cycle   2 NSaved=   2.
 NSaved= 2 IEnMin= 2 EnMin= -532.256815369359     IErMin= 2 ErrMin= 3.66D-03
 ErrMax= 3.66D-03  0.00D+00 EMaxC= 1.00D-01 BMatC= 1.24D-03 BMatP= 3.74D-02
 IDIUse=3 WtCom= 9.63D-01 WtEn= 3.66D-02
 Coeff-Com: -0.123D+00 0.112D+01
 Coeff-En:   0.000D+00 0.100D+01
 Coeff:     -0.119D+00 0.112D+01
 Gap=     0.101 Goal=   None    Shift=    0.000
 RMSDP=1.14D-03 MaxDP=1.26D-02 DE=-2.97D-02 OVMax= 1.59D-02

 Cycle   3  Pass 0  IDiag  1:
 RMSU=  1.05D-03    CP:  9.98D-01  1.13D+00
 E= -532.280741507282     Delta-E=       -0.023926137924 Rises=F Damp=F
 DIIS: error= 6.03D-03 at cycle   3 NSaved=   3.
 NSaved= 3 IEnMin= 3 EnMin= -532.280741507282     IErMin= 2 ErrMin= 3.66D-03
 ErrMax= 6.03D-03  0.00D+00 EMaxC= 1.00D-01 BMatC= 1.27D-03 BMatP= 1.24D-03
 IDIUse=3 WtCom= 9.40D-01 WtEn= 6.03D-02
 Coeff-Com: -0.876D-01 0.652D+00 0.435D+00
 Coeff-En:   0.000D+00 0.000D+00 0.100D+01
 Coeff:     -0.824D-01 0.613D+00 0.469D+00
 Gap=     0.101 Goal=   None    Shift=    0.000
 RMSDP=9.64D-04 MaxDP=1.60D-02 DE=-2.39D-02 OVMax= 1.88D-02

 Cycle   4  Pass 0  IDiag  1:
 RMSU=  4.80D-04    CP:  9.98D-01  1.14D+00  2.04D-01
 E= -532.282037336719     Delta-E=       -0.001295829436 Rises=F Damp=F
 DIIS: error= 3.11D-03 at cycle   4 NSaved=   4.
 NSaved= 4 IEnMin= 4 EnMin= -532.282037336719     IErMin= 4 ErrMin= 3.11D-03
 ErrMax= 3.11D-03  0.00D+00 EMaxC= 1.00D-01 BMatC= 3.85D-04 BMatP= 1.24D-03
 IDIUse=3 WtCom= 9.69D-01 WtEn= 3.11D-02
 Coeff-Com: -0.203D-01 0.115D+00 0.349D+00 0.556D+00
 Coeff-En:   0.000D+00 0.000D+00 0.291D+00 0.709D+00
 Coeff:     -0.197D-01 0.112D+00 0.348D+00 0.560D+00
 Gap=     0.100 Goal=   None    Shift=    0.000
 RMSDP=3.94D-04 MaxDP=7.82D-03 DE=-1.30D-03 OVMax= 1.02D-02

 Cycle   5  Pass 0  IDiag  1:
 RMSU=  1.55D-04    CP:  9.98D-01  1.14D+00  4.68D-01  5.13D-01
 E= -532.282562998505     Delta-E=       -0.000525661786 Rises=F Damp=F
 DIIS: error= 8.30D-04 at cycle   5 NSaved=   5.
 NSaved= 5 IEnMin= 5 EnMin= -532.282562998505     IErMin= 5 ErrMin= 8.30D-04
 ErrMax= 8.30D-04  0.00D+00 EMaxC= 1.00D-01 BMatC= 4.32D-05 BMatP= 3.85D-04
 IDIUse=3 WtCom= 9.92D-01 WtEn= 8.30D-03
 Coeff-Com: -0.659D-02 0.261D-01 0.207D+00 0.385D+00 0.389D+00
 Coeff-En:   0.000D+00 0.000D+00 0.000D+00 0.260D-01 0.974D+00
 Coeff:     -0.654D-02 0.259D-01 0.205D+00 0.382D+00 0.394D+00
 Gap=     0.100 Goal=   None    Shift=    0.000
 RMSDP=1.04D-04 MaxDP=1.74D-03 DE=-5.26D-04 OVMax= 2.50D-03

 Cycle   6  Pass 0  IDiag  1:
 RMSU=  1.80D-05    CP:  9.98D-01  1.14D+00  4.65D-01  5.83D-01  3.78D-01
 E= -532.282616917741     Delta-E=       -0.000053919237 Rises=F Damp=F
 DIIS: error= 3.89D-05 at cycle   6 NSaved=   6.
 NSaved= 6 IEnMin= 6 EnMin= -532.282616917741     IErMin= 6 ErrMin= 3.89D-05
 ErrMax= 3.89D-05  0.00D+00 EMaxC= 1.00D-01 BMatC= 1.09D-07 BMatP= 4.32D-05
 IDIUse=1 WtCom= 1.00D+00 WtEn= 0.00D+00
 Coeff-Com: -0.134D-02 0.472D-02 0.475D-01 0.910D-01 0.118D+00 0.741D+00
 Coeff:     -0.134D-02 0.472D-02 0.475D-01 0.910D-01 0.118D+00 0.741D+00
 Gap=     0.100 Goal=   None    Shift=    0.000
 RMSDP=7.90D-06 MaxDP=2.04D-04 DE=-5.39D-05 OVMax= 1.69D-04

 Initial convergence to 1.0D-05 achieved.  Increase integral accuracy.
 Cycle   7  Pass 1  IDiag  1:
 E= -532.282309557067     Delta-E=        0.000307360674 Rises=F Damp=F
 DIIS: error= 2.51D-05 at cycle   1 NSaved=   1.
 NSaved= 1 IEnMin= 1 EnMin= -532.282309557067     IErMin= 1 ErrMin= 2.51D-05
 ErrMax= 2.51D-05  0.00D+00 EMaxC= 1.00D-01 BMatC= 4.97D-08 BMatP= 4.97D-08
 IDIUse=1 WtCom= 1.00D+00 WtEn= 0.00D+00
 Coeff-Com:  0.100D+01
 Coeff:      0.100D+01
 Gap=     0.100 Goal=   None    Shift=    0.000
 RMSDP=7.90D-06 MaxDP=2.04D-04 DE= 3.07D-04 OVMax= 1.66D-04

 Cycle   8  Pass 1  IDiag  1:
 RMSU=  9.27D-06    CP:  1.00D+00
 E= -532.282309472331     Delta-E=        0.000000084737 Rises=F Damp=F
 DIIS: error= 4.16D-05 at cycle   2 NSaved=   2.
 NSaved= 2 IEnMin= 1 EnMin= -532.282309557067     IErMin= 1 ErrMin= 2.51D-05
 ErrMax= 4.16D-05  0.00D+00 EMaxC= 1.00D-01 BMatC= 1.16D-07 BMatP= 4.97D-08
 IDIUse=1 WtCom= 1.00D+00 WtEn= 0.00D+00
 Coeff-Com:  0.610D+00 0.390D+00
 Coeff:      0.610D+00 0.390D+00
 Gap=     0.100 Goal=   None    Shift=    0.000
 RMSDP=6.10D-06 MaxDP=1.51D-04 DE= 8.47D-08 OVMax= 1.14D-04

 Cycle   9  Pass 1  IDiag  1:
 RMSU=  1.84D-06    CP:  1.00D+00  3.73D-01
 E= -532.282309624733     Delta-E=       -0.000000152403 Rises=F Damp=F
 DIIS: error= 6.35D-06 at cycle   3 NSaved=   3.
 NSaved= 3 IEnMin= 3 EnMin= -532.282309624733     IErMin= 3 ErrMin= 6.35D-06
 ErrMax= 6.35D-06  0.00D+00 EMaxC= 1.00D-01 BMatC= 1.32D-09 BMatP= 4.97D-08
 IDIUse=1 WtCom= 1.00D+00 WtEn= 0.00D+00
 Coeff-Com:  0.121D+00 0.126D+00 0.752D+00
 Coeff:      0.121D+00 0.126D+00 0.752D+00
 Gap=     0.100 Goal=   None    Shift=    0.000
 RMSDP=1.31D-06 MaxDP=2.54D-05 DE=-1.52D-07 OVMax= 3.83D-05

 Cycle  10  Pass 1  IDiag  1:
 RMSU=  1.08D-06    CP:  1.00D+00  4.26D-01  6.95D-01
 E= -532.282309623752     Delta-E=        0.000000000981 Rises=F Damp=F
 DIIS: error= 6.91D-06 at cycle   4 NSaved=   4.
 NSaved= 4 IEnMin= 3 EnMin= -532.282309624733     IErMin= 3 ErrMin= 6.35D-06
 ErrMax= 6.91D-06  0.00D+00 EMaxC= 1.00D-01 BMatC= 2.11D-09 BMatP= 1.32D-09
 IDIUse=1 WtCom= 1.00D+00 WtEn= 0.00D+00
 Coeff-Com:  0.409D-02 0.420D-01 0.592D+00 0.362D+00
 Coeff:      0.409D-02 0.420D-01 0.592D+00 0.362D+00
 Gap=     0.100 Goal=   None    Shift=    0.000
 RMSDP=7.60D-07 MaxDP=1.57D-05 DE= 9.81D-10 OVMax= 1.94D-05

 Cycle  11  Pass 1  IDiag  1:
 RMSU=  1.10D-07    CP:  1.00D+00  4.16D-01  8.44D-01  3.55D-01
 E= -532.282309626639     Delta-E=       -0.000000002887 Rises=F Damp=F
 DIIS: error= 4.57D-07 at cycle   5 NSaved=   5.
 NSaved= 5 IEnMin= 5 EnMin= -532.282309626639     IErMin= 5 ErrMin= 4.57D-07
 ErrMax= 4.57D-07  0.00D+00 EMaxC= 1.00D-01 BMatC= 1.43D-11 BMatP= 1.32D-09
 IDIUse=1 WtCom= 1.00D+00 WtEn= 0.00D+00
 Coeff-Com:  0.135D-02 0.232D-01 0.340D+00 0.212D+00 0.423D+00
 Coeff:      0.135D-02 0.232D-01 0.340D+00 0.212D+00 0.423D+00
 Gap=     0.100 Goal=   None    Shift=    0.000
 RMSDP=7.09D-08 MaxDP=1.17D-06 DE=-2.89D-09 OVMax= 2.55D-07

 Cycle  12  Pass 1  IDiag  1:
 RMSU=  2.78D-08    CP:  1.00D+00  4.17D-01  8.43D-01  3.69D-01  4.30D-01
 E= -532.282309626657     Delta-E=       -0.000000000018 Rises=F Damp=F
 DIIS: error= 1.13D-07 at cycle   6 NSaved=   6.
 NSaved= 6 IEnMin= 6 EnMin= -532.282309626657     IErMin= 6 ErrMin= 1.13D-07
 ErrMax= 1.13D-07  0.00D+00 EMaxC= 1.00D-01 BMatC= 5.63D-13 BMatP= 1.43D-11
 IDIUse=1 WtCom= 1.00D+00 WtEn= 0.00D+00
 Coeff-Com:  0.172D-03 0.847D-02 0.130D+00 0.786D-01 0.216D+00 0.568D+00
 Coeff:      0.172D-03 0.847D-02 0.130D+00 0.786D-01 0.216D+00 0.568D+00
 Gap=     0.100 Goal=   None    Shift=    0.000
 RMSDP=1.60D-08 MaxDP=2.01D-07 DE=-1.82D-11 OVMax= 1.34D-07

 Cycle  13  Pass 1  IDiag  1:
 RMSU=  5.58D-09    CP:  1.00D+00  4.17D-01  8.44D-01  3.65D-01  4.66D-01
                    CP:  5.33D-01
 E= -532.282309626657     Delta-E=        0.000000000000 Rises=F Damp=F
 DIIS: error= 1.36D-08 at cycle   7 NSaved=   7.
 NSaved= 7 IEnMin= 6 EnMin= -532.282309626657     IErMin= 7 ErrMin= 1.36D-08
 ErrMax= 1.36D-08  0.00D+00 EMaxC= 1.00D-01 BMatC= 1.27D-14 BMatP= 5.63D-13
 IDIUse=1 WtCom= 1.00D+00 WtEn= 0.00D+00
 Coeff-Com:  0.190D-04 0.138D-02 0.221D-01 0.126D-01 0.394D-01 0.194D+00
 Coeff-Com:  0.731D+00
 Coeff:      0.190D-04 0.138D-02 0.221D-01 0.126D-01 0.394D-01 0.194D+00
 Coeff:      0.731D+00
 Gap=     0.100 Goal=   None    Shift=    0.000
 RMSDP=2.12D-09 MaxDP=2.98D-08 DE= 0.00D+00 OVMax= 2.44D-08

 SCF Done:  E(RPBE-PBE) =  -532.282309627     A.U. after   13 cycles
            NFock= 13  Conv=0.21D-08     -V/T= 2.0164
 KE= 5.236874667964D+02 PE=-2.756335431471D+03 EE= 9.389973445412D+02
 Leave Link  502 at Thu Dec 26 16:59:45 2024, MaxMem=   104857600 cpu:              21.1 elap:               1.6
 (Enter /cm/shared/uniol/sw/SYSTEM/gaussian/g16.c01/g16/l601.exe)
 Copying SCF densities to generalized density rwf, IOpCl= 0 IROHF=0.

 **********************************************************************

            Population analysis using the SCF Density.

 **********************************************************************

 Orbital symmetries:
       Occupied  (BU) (AG) (BU) (AG) (AG) (BU) (BU) (AG) (AG) (BU)
                 (AG) (BU) (BU) (AG) (AG) (BU) (AG) (BU) (AG) (BU)
                 (BU) (AG) (AG) (AG) (BU) (BU) (BU) (AG) (AG) (AG)
                 (BU) (BU) (AG) (BU) (BU) (AU) (AG) (BU) (BG) (BU)
                 (AG) (AG) (AU) (BG) (AU) (BG) (BG)
       Virtual   (AU) (AU) (BG) (AU) (BG) (AU) (BG) (BU) (AG) (BU)
                 (AG) (AG) (BU) (AG) (BU) (AG) (BU) (AG) (BU) (AG)
                 (BU) (AG) (BU) (BU) (AG) (BU) (AG) (AG) (BU) (AG)
                 (BU) (AG) (BU)
 The electronic state is 1-AG.
 Alpha  occ. eigenvalues --   -9.72850  -9.72844  -9.72742  -9.72738  -9.71496
 Alpha  occ. eigenvalues --   -9.71496  -9.71413  -9.71413  -9.71341  -9.71341
 Alpha  occ. eigenvalues --   -9.71317  -9.71317  -9.71241  -9.71233  -0.75219
 Alpha  occ. eigenvalues --   -0.72369  -0.67863  -0.66310  -0.63336  -0.62037
 Alpha  occ. eigenvalues --   -0.58777  -0.53549  -0.50829  -0.49629  -0.48609
 Alpha  occ. eigenvalues --   -0.43888  -0.42284  -0.40673  -0.37030  -0.36367
 Alpha  occ. eigenvalues --   -0.35770  -0.34509  -0.32943  -0.32082  -0.30597
 Alpha  occ. eigenvalues --   -0.30232  -0.29554  -0.28464  -0.26595  -0.25519
 Alpha  occ. eigenvalues --   -0.23936  -0.23281  -0.21074  -0.20679  -0.16750
 Alpha  occ. eigenvalues --   -0.15675  -0.10878
 Alpha virt. eigenvalues --   -0.00843   0.04643   0.06133   0.11175   0.11595
 Alpha virt. eigenvalues --    0.19730   0.25783   0.29622   0.30025   0.31453
 Alpha virt. eigenvalues --    0.34680   0.34985   0.36933   0.38538   0.38876
 Alpha virt. eigenvalues --    0.39531   0.39673   0.41608   0.42297   0.44688
 Alpha virt. eigenvalues --    0.48030   0.49930   0.50749   0.52369   0.55444
 Alpha virt. eigenvalues --    0.59995   0.60167   0.61063   0.61112   0.67189
 Alpha virt. eigenvalues --    0.70905   0.76125   0.76433
     Molecular Orbital Coefficients:
                          43        44        45        46        47
                        (AU)--O   (BG)--O   (AU)--O   (BG)--O   (BG)--O
     Eigenvalues --    -0.21074  -0.20679  -0.16750  -0.15675  -0.10878
   1 1   C  1S          0.00000   0.00000   0.00000   0.00000   0.00000
   2        2S          0.00000   0.00000   0.00000   0.00000   0.00000
   3        2PX         0.00000   0.00000   0.00000   0.00000   0.00000
   4        2PY         0.00000   0.00000   0.00000   0.00000   0.00000
   5        2PZ        -0.15496  -0.24904  -0.18705   0.34722  -0.10005
   6 2   C  1S          0.00000   0.00000   0.00000   0.00000   0.00000
   7        2S          0.00000   0.00000   0.00000   0.00000   0.00000
   8        2PX         0.00000   0.00000   0.00000   0.00000   0.00000
   9        2PY         0.00000   0.00000   0.00000   0.00000   0.00000
  10        2PZ        -0.23139   0.35188   0.00000   0.00000   0.41555
  11 3   H  1S          0.00000   0.00000   0.00000   0.00000   0.00000
  12 4   C  1S          0.00000   0.00000   0.00000   0.00000   0.00000
  13        2S          0.00000   0.00000   0.00000   0.00000   0.00000
  14        2PX         0.00000   0.00000   0.00000   0.00000   0.00000
  15        2PY         0.00000   0.00000   0.00000   0.00000   0.00000
  16        2PZ        -0.15497   0.24904   0.18705   0.34722   0.10005
  17 5   C  1S          0.00000   0.00000   0.00000   0.00000   0.00000
  18        2S          0.00000   0.00000   0.00000   0.00000   0.00000
  19        2PX         0.00000   0.00000   0.00000   0.00000   0.00000
  20        2PY         0.00000   0.00000   0.00000   0.00000   0.00000
  21        2PZ         0.34403   0.10491   0.19587  -0.31191  -0.22869
  22 6   H  1S          0.00000   0.00000   0.00000   0.00000   0.00000
  23 7   C  1S          0.00000   0.00000   0.00000   0.00000   0.00000
  24        2S          0.00000   0.00000   0.00000   0.00000   0.00000
  25        2PX         0.00000   0.00000   0.00000   0.00000   0.00000
  26        2PY         0.00000   0.00000   0.00000   0.00000   0.00000
  27        2PZ         0.34403  -0.10491  -0.19586  -0.31191   0.22869
  28 8   H  1S          0.00000   0.00000   0.00000   0.00000   0.00000
  29 9   C  1S          0.00000   0.00000   0.00000   0.00000   0.00000
  30        2S          0.00000   0.00000   0.00000   0.00000   0.00000
  31        2PX         0.00000   0.00000   0.00000   0.00000   0.00000
  32        2PY         0.00000   0.00000   0.00000   0.00000   0.00000
  33        2PZ         0.15551   0.24546   0.37210   0.01040  -0.29936
  34 10  H  1S          0.00000   0.00000   0.00000   0.00000   0.00000
  35 11  C  1S          0.00000   0.00000   0.00000   0.00000   0.00000
  36        2S          0.00000   0.00000   0.00000   0.00000   0.00000
  37        2PX         0.00000   0.00000   0.00000   0.00000   0.00000
  38        2PY         0.00000   0.00000   0.00000   0.00000   0.00000
  39        2PZ         0.15551  -0.24546  -0.37210   0.01040   0.29936
  40 12  H  1S          0.00000   0.00000   0.00000   0.00000   0.00000
  41 13  C  1S          0.00000   0.00000   0.00000   0.00000   0.00000
  42        2S          0.00000   0.00000   0.00000   0.00000   0.00000
  43        2PX         0.00000   0.00000   0.00000   0.00000   0.00000
  44        2PY         0.00000   0.00000   0.00000   0.00000   0.00000
  45        2PZ        -0.15496   0.24904  -0.18705  -0.34722   0.10005
  46 14  C  1S          0.00000   0.00000   0.00000   0.00000   0.00000
  47        2S          0.00000   0.00000   0.00000   0.00000   0.00000
  48        2PX         0.00000   0.00000   0.00000   0.00000   0.00000
  49        2PY         0.00000   0.00000   0.00000   0.00000   0.00000
  50        2PZ        -0.23139  -0.35188   0.00000  -0.00000  -0.41555
  51 15  H  1S          0.00000   0.00000   0.00000   0.00000   0.00000
  52 16  C  1S          0.00000   0.00000   0.00000   0.00000   0.00000
  53        2S          0.00000   0.00000   0.00000   0.00000   0.00000
  54        2PX         0.00000   0.00000   0.00000   0.00000   0.00000
  55        2PY         0.00000   0.00000   0.00000   0.00000   0.00000
  56        2PZ        -0.15497  -0.24904   0.18705  -0.34722  -0.10005
  57 17  C  1S          0.00000   0.00000   0.00000   0.00000   0.00000
  58        2S          0.00000   0.00000   0.00000   0.00000   0.00000
  59        2PX         0.00000   0.00000   0.00000   0.00000   0.00000
  60        2PY         0.00000   0.00000   0.00000   0.00000   0.00000
  61        2PZ         0.34403  -0.10491   0.19587   0.31191   0.22869
  62 18  H  1S          0.00000   0.00000   0.00000   0.00000   0.00000
  63 19  C  1S          0.00000   0.00000   0.00000   0.00000   0.00000
  64        2S          0.00000   0.00000   0.00000   0.00000   0.00000
  65        2PX         0.00000   0.00000   0.00000   0.00000   0.00000
  66        2PY         0.00000   0.00000   0.00000   0.00000   0.00000
  67        2PZ         0.34403   0.10491  -0.19586   0.31191  -0.22869
  68 20  H  1S          0.00000   0.00000   0.00000   0.00000   0.00000
  69 21  C  1S          0.00000   0.00000   0.00000   0.00000   0.00000
  70        2S          0.00000   0.00000   0.00000   0.00000   0.00000
  71        2PX         0.00000   0.00000   0.00000   0.00000   0.00000
  72        2PY         0.00000   0.00000   0.00000   0.00000   0.00000
  73        2PZ         0.15551  -0.24546   0.37210  -0.01040   0.29936
  74 22  H  1S          0.00000   0.00000   0.00000   0.00000   0.00000
  75 23  C  1S          0.00000   0.00000   0.00000   0.00000   0.00000
  76        2S          0.00000   0.00000   0.00000   0.00000   0.00000
  77        2PX         0.00000   0.00000   0.00000   0.00000   0.00000
  78        2PY         0.00000   0.00000   0.00000   0.00000   0.00000
  79        2PZ         0.15551   0.24546  -0.37210  -0.01040  -0.29936
  80 24  H  1S          0.00000   0.00000   0.00000   0.00000   0.00000
                          48        49        50        51        52
                        (AU)--V   (AU)--V   (BG)--V   (AU)--V   (BG)--V
     Eigenvalues --    -0.00843   0.04643   0.06133   0.11175   0.11595
   1 1   C  1S          0.00000   0.00000   0.00000   0.00000   0.00000
   2        2S          0.00000   0.00000   0.00000   0.00000   0.00000
   3        2PX         0.00000   0.00000   0.00000   0.00000   0.00000
   4        2PY         0.00000   0.00000   0.00000   0.00000   0.00000
   5        2PZ        -0.10901   0.42333  -0.23397  -0.33867   0.21299
   6 2   C  1S          0.00000   0.00000   0.00000   0.00000   0.00000
   7        2S          0.00000   0.00000   0.00000   0.00000   0.00000
   8        2PX         0.00000   0.00000   0.00000   0.00000   0.00000
   9        2PY         0.00000   0.00000   0.00000   0.00000   0.00000
  10        2PZ         0.45432   0.00000  -0.00000   0.47486   0.31037
  11 3   H  1S          0.00000   0.00000   0.00000   0.00000   0.00000
  12 4   C  1S          0.00000   0.00000   0.00000   0.00000   0.00000
  13        2S          0.00000   0.00000   0.00000   0.00000   0.00000
  14        2PX         0.00000   0.00000   0.00000   0.00000   0.00000
  15        2PY         0.00000   0.00000   0.00000   0.00000   0.00000
  16        2PZ        -0.10901  -0.42333  -0.23397  -0.33868  -0.21299
  17 5   C  1S          0.00000   0.00000   0.00000   0.00000   0.00000
  18        2S          0.00000   0.00000   0.00000   0.00000   0.00000
  19        2PX         0.00000   0.00000   0.00000   0.00000   0.00000
  20        2PY         0.00000   0.00000   0.00000   0.00000   0.00000
  21        2PZ         0.25297   0.37561  -0.24212  -0.13999   0.46699
  22 6   H  1S          0.00000   0.00000   0.00000   0.00000   0.00000
  23 7   C  1S          0.00000   0.00000   0.00000   0.00000   0.00000
  24        2S          0.00000   0.00000   0.00000   0.00000   0.00000
  25        2PX         0.00000   0.00000   0.00000   0.00000   0.00000
  26        2PY         0.00000   0.00000   0.00000   0.00000   0.00000
  27        2PZ         0.25297  -0.37561  -0.24212  -0.13999  -0.46699
  28 8   H  1S          0.00000   0.00000   0.00000   0.00000   0.00000
  29 9   C  1S          0.00000   0.00000   0.00000   0.00000   0.00000
  30        2S          0.00000   0.00000   0.00000   0.00000   0.00000
  31        2PX         0.00000   0.00000   0.00000   0.00000   0.00000
  32        2PY         0.00000   0.00000   0.00000   0.00000   0.00000
  33        2PZ        -0.33108   0.01098   0.46135   0.32920  -0.20997
  34 10  H  1S          0.00000   0.00000   0.00000   0.00000   0.00000
  35 11  C  1S          0.00000   0.00000   0.00000   0.00000   0.00000
  36        2S          0.00000   0.00000   0.00000   0.00000   0.00000
  37        2PX         0.00000   0.00000   0.00000   0.00000   0.00000
  38        2PY         0.00000   0.00000   0.00000   0.00000   0.00000
  39        2PZ        -0.33108  -0.01099   0.46135   0.32920   0.20997
  40 12  H  1S          0.00000   0.00000   0.00000   0.00000   0.00000
  41 13  C  1S          0.00000   0.00000   0.00000   0.00000   0.00000
  42        2S          0.00000   0.00000   0.00000   0.00000   0.00000
  43        2PX         0.00000   0.00000   0.00000   0.00000   0.00000
  44        2PY         0.00000   0.00000   0.00000   0.00000   0.00000
  45        2PZ        -0.10901   0.42333   0.23397  -0.33867  -0.21299
  46 14  C  1S          0.00000   0.00000   0.00000   0.00000   0.00000
  47        2S          0.00000   0.00000   0.00000   0.00000   0.00000
  48        2PX         0.00000   0.00000   0.00000   0.00000   0.00000
  49        2PY         0.00000   0.00000   0.00000   0.00000   0.00000
  50        2PZ         0.45432   0.00000   0.00000   0.47486  -0.31037
  51 15  H  1S          0.00000   0.00000   0.00000   0.00000   0.00000
  52 16  C  1S          0.00000   0.00000   0.00000   0.00000   0.00000
  53        2S          0.00000   0.00000   0.00000   0.00000   0.00000
  54        2PX         0.00000   0.00000   0.00000   0.00000   0.00000
  55        2PY         0.00000   0.00000   0.00000   0.00000   0.00000
  56        2PZ        -0.10901  -0.42333   0.23397  -0.33868   0.21299
  57 17  C  1S          0.00000   0.00000   0.00000   0.00000   0.00000
  58        2S          0.00000   0.00000   0.00000   0.00000   0.00000
  59        2PX         0.00000   0.00000   0.00000   0.00000   0.00000
  60        2PY         0.00000   0.00000   0.00000   0.00000   0.00000
  61        2PZ         0.25297   0.37561   0.24212  -0.13999  -0.46699
  62 18  H  1S          0.00000   0.00000   0.00000   0.00000   0.00000
  63 19  C  1S          0.00000   0.00000   0.00000   0.00000   0.00000
  64        2S          0.00000   0.00000   0.00000   0.00000   0.00000
  65        2PX         0.00000   0.00000   0.00000   0.00000   0.00000
  66        2PY         0.00000   0.00000   0.00000   0.00000   0.00000
  67        2PZ         0.25297  -0.37561   0.24212  -0.13999   0.46699
  68 20  H  1S          0.00000   0.00000   0.00000   0.00000   0.00000
  69 21  C  1S          0.00000   0.00000   0.00000   0.00000   0.00000
  70        2S          0.00000   0.00000   0.00000   0.00000   0.00000
  71        2PX         0.00000   0.00000   0.00000   0.00000   0.00000
  72        2PY         0.00000   0.00000   0.00000   0.00000   0.00000
  73        2PZ        -0.33108   0.01098  -0.46135   0.32920   0.20997
  74 22  H  1S          0.00000   0.00000   0.00000   0.00000   0.00000
  75 23  C  1S          0.00000   0.00000   0.00000   0.00000   0.00000
  76        2S          0.00000   0.00000   0.00000   0.00000   0.00000
  77        2PX         0.00000   0.00000   0.00000   0.00000   0.00000
  78        2PY         0.00000   0.00000   0.00000   0.00000   0.00000
  79        2PZ        -0.33108  -0.01099  -0.46135   0.32920  -0.20997
  80 24  H  1S          0.00000   0.00000   0.00000   0.00000   0.00000
     Density Matrix:
                           1         2         3         4         5
   1 1   C  1S          2.06563
   2        2S         -0.20124   0.83258
   3        2PX        -0.00030   0.00591   0.60442
   4        2PY         0.00029  -0.00627   0.00013   0.60550
   5        2PZ         0.00000   0.00000   0.00000   0.00000   0.76723
   6 2   C  1S         -0.00484   0.01652  -0.00899  -0.02235   0.00000
   7        2S          0.01576  -0.04508   0.03991   0.08131   0.00000
   8        2PX         0.01399  -0.04980   0.03246   0.06168   0.00000
   9        2PY         0.01905  -0.07827   0.00976   0.07435   0.00000
  10        2PZ         0.00000   0.00000   0.00000   0.00000  -0.04831
  11 3   H  1S         -0.01836   0.07181  -0.00325  -0.10550   0.00000
  12 4   C  1S          0.02312  -0.06195  -0.00059   0.10924   0.00000
  13        2S         -0.06195   0.08781   0.00148  -0.28458   0.00000
  14        2PX        -0.00059   0.00149   0.02494  -0.00016   0.00000
  15        2PY        -0.10924   0.28458   0.00016  -0.47899   0.00000
  16        2PZ         0.00000   0.00000   0.00000   0.00000   0.33916
  17 5   C  1S         -0.00457   0.01637   0.01223  -0.00593   0.00000
  18        2S          0.01609  -0.05705  -0.04751   0.02127   0.00000
  19        2PX        -0.01000   0.03690   0.01555  -0.04038   0.00000
  20        2PY         0.00801  -0.03189  -0.04842  -0.03266   0.00000
  21        2PZ         0.00000   0.00000   0.00000   0.00000  -0.21651
  22 6   H  1S         -0.00211   0.00626   0.00778  -0.00140   0.00000
  23 7   C  1S         -0.00455   0.01505   0.02231   0.00229   0.00000
  24        2S          0.01375  -0.03659  -0.08105   0.00099   0.00000
  25        2PX        -0.02333   0.09299   0.09357   0.02347   0.00000
  26        2PY         0.00146   0.00221  -0.01808   0.01632   0.00000
  27        2PZ         0.00000   0.00000   0.00000   0.00000  -0.05697
  28 8   H  1S         -0.01983   0.07947   0.09465   0.04825   0.00000
  29 9   C  1S         -0.00469   0.01623   0.00887  -0.02249   0.00000
  30        2S          0.01548  -0.04533  -0.03857   0.08272   0.00000
  31        2PX        -0.01452   0.05414   0.03477  -0.06191   0.00000
  32        2PY         0.01828  -0.07529  -0.00929   0.07467   0.00000
  33        2PZ         0.00000   0.00000   0.00000   0.00000  -0.03593
  34 10  H  1S         -0.01734   0.06787   0.00165  -0.10262   0.00000
  35 11  C  1S          0.02423  -0.06449  -0.09763  -0.05468   0.00000
  36        2S         -0.06467   0.09047   0.24788   0.14137   0.00000
  37        2PX         0.09833  -0.25411  -0.35165  -0.21272   0.00000
  38        2PY         0.05620  -0.15283  -0.20734  -0.09088   0.00000
  39        2PZ         0.00000   0.00000   0.00000   0.00000   0.36719
  40 12  H  1S          0.00150  -0.00726   0.00701  -0.00534   0.00000
  41 13  C  1S         -0.00425   0.01488  -0.01079  -0.00696   0.00000
  42        2S          0.01488  -0.05144   0.04069   0.02672   0.00000
  43        2PX         0.01079  -0.04069   0.01614   0.04384   0.00000
  44        2PY         0.00696  -0.02672   0.04384  -0.03088   0.00000
  45        2PZ         0.00000   0.00000   0.00000   0.00000  -0.20090
  46 14  C  1S          0.02554  -0.06748   0.10062  -0.05672   0.00000
  47        2S         -0.06763   0.09085  -0.25071   0.14307   0.00000
  48        2PX        -0.09992   0.25045  -0.34176   0.21455   0.00000
  49        2PY         0.05840  -0.15479   0.21148  -0.09006   0.00000
  50        2PZ         0.00000   0.00000   0.00000   0.00000   0.46852
  51 15  H  1S          0.02744  -0.09960   0.07440  -0.10683   0.00000
  52 16  C  1S         -0.00466   0.01485  -0.02268   0.00209   0.00000
  53        2S          0.01485  -0.03898   0.08627   0.00034   0.00000
  54        2PX         0.02268  -0.08627   0.09062  -0.01965   0.00000
  55        2PY         0.00209   0.00034   0.01965   0.01522   0.00000
  56        2PZ         0.00000   0.00000   0.00000   0.00000  -0.05273
  57 17  C  1S         -0.00145   0.00596  -0.00588   0.00226   0.00000
  58        2S          0.00576  -0.02239   0.02496  -0.00816   0.00000
  59        2PX         0.00578  -0.02548   0.02315  -0.01270   0.00000
  60        2PY         0.00223  -0.00828   0.01249  -0.00614   0.00000
  61        2PZ         0.00000   0.00000   0.00000   0.00000   0.00644
  62 18  H  1S         -0.00404   0.01743  -0.01794   0.00854   0.00000
  63 19  C  1S         -0.00018   0.00065  -0.00052  -0.00041   0.00000
  64        2S          0.00067  -0.00233   0.00231   0.00134   0.00000
  65        2PX         0.00030  -0.00106  -0.00064   0.00350   0.00000
  66        2PY         0.00083  -0.00348   0.00438  -0.00226   0.00000
  67        2PZ         0.00000   0.00000   0.00000   0.00000   0.14000
  68 20  H  1S         -0.00022   0.00065   0.00102  -0.00475   0.00000
  69 21  C  1S          0.00345  -0.01308   0.01531  -0.00787   0.00000
  70        2S         -0.01330   0.04707  -0.06388   0.03193   0.00000
  71        2PX        -0.01389   0.05739  -0.06007   0.03454   0.00000
  72        2PY         0.00343  -0.01188   0.02116  -0.00664   0.00000
  73        2PZ         0.00000   0.00000   0.00000   0.00000  -0.14155
  74 22  H  1S         -0.00212   0.00667  -0.00788  -0.00369   0.00000
  75 23  C  1S          0.00041  -0.00130   0.00198  -0.00068   0.00000
  76        2S         -0.00073   0.00162  -0.00534   0.00539   0.00000
  77        2PX        -0.00174   0.00594  -0.00488  -0.00472   0.00000
  78        2PY        -0.00245   0.01034  -0.00644  -0.00378   0.00000
  79        2PZ         0.00000   0.00000   0.00000   0.00000   0.01215
  80 24  H  1S          0.02739  -0.10076  -0.07908  -0.10635   0.00000
                           6         7         8         9        10
   6 2   C  1S          2.06653
   7        2S         -0.20386   0.83780
   8        2PX        -0.00000  -0.00000   0.59557
   9        2PY         0.00648  -0.03401  -0.00000   0.62166
  10        2PZ         0.00000   0.00000   0.00000   0.00000   0.81604
  11 3   H  1S         -0.11439   0.28576   0.00000  -0.54661   0.00000
  12 4   C  1S          0.02554  -0.06763  -0.09992  -0.05840   0.00000
  13        2S         -0.06748   0.09086   0.25045   0.15479   0.00000
  14        2PX         0.10062  -0.25071  -0.34176  -0.21148   0.00000
  15        2PY         0.05672  -0.14307  -0.21455  -0.09006   0.00000
  16        2PZ         0.00000   0.00000   0.00000   0.00000   0.46852
  17 5   C  1S          0.00343  -0.01304  -0.01296  -0.00319   0.00000
  18        2S         -0.01258   0.04397   0.05209   0.00985   0.00000
  19        2PX         0.01478  -0.06135  -0.05417  -0.02077   0.00000
  20        2PY         0.00793  -0.03149  -0.03367  -0.00568   0.00000
  21        2PZ         0.00000   0.00000   0.00000   0.00000  -0.21271
  22 6   H  1S          0.00664  -0.02721  -0.03177  -0.01646   0.00000
  23 7   C  1S          0.00052  -0.00113  -0.00217  -0.00269   0.00000
  24        2S         -0.00186   0.00369   0.00848   0.01138   0.00000
  25        2PX         0.00168  -0.00368  -0.00382  -0.00547   0.00000
  26        2PY        -0.00027   0.00366  -0.00560  -0.00485   0.00000
  27        2PZ         0.00000   0.00000   0.00000   0.00000   0.01975
  28 8   H  1S         -0.00295   0.01441   0.01143   0.00172   0.00000
  29 9   C  1S         -0.00598   0.02082   0.02319  -0.00402   0.00000
  30        2S          0.02131  -0.06732  -0.09263   0.02465   0.00000
  31        2PX        -0.02429   0.09482   0.09248   0.01682   0.00000
  32        2PY        -0.00365   0.02368  -0.01582  -0.01560   0.00000
  33        2PZ         0.00000   0.00000   0.00000   0.00000  -0.06536
  34 10  H  1S          0.01411  -0.05455  -0.04966  -0.00784   0.00000
  35 11  C  1S          0.00267  -0.00958  -0.01148  -0.00765   0.00000
  36        2S         -0.00968   0.03140   0.04443   0.03234   0.00000
  37        2PX         0.01190  -0.04612  -0.05335  -0.03303   0.00000
  38        2PY         0.00765  -0.03217  -0.03222  -0.01392   0.00000
  39        2PZ         0.00000   0.00000   0.00000   0.00000   0.08676
  40 12  H  1S          0.01411  -0.05455   0.04966  -0.00784   0.00000
  41 13  C  1S          0.02554  -0.06763   0.09992  -0.05840   0.00000
  42        2S         -0.06748   0.09085  -0.25045   0.15479   0.00000
  43        2PX        -0.10062   0.25071  -0.34176   0.21148   0.00000
  44        2PY         0.05672  -0.14307   0.21455  -0.09006   0.00000
  45        2PZ         0.00000   0.00000   0.00000   0.00000   0.46852
  46 14  C  1S         -0.00387   0.01275   0.00000   0.01174   0.00000
  47        2S          0.01275  -0.04072   0.00000  -0.04269   0.00000
  48        2PX        -0.00000  -0.00000  -0.04639  -0.00000   0.00000
  49        2PY        -0.01174   0.04269  -0.00000   0.04027   0.00000
  50        2PZ         0.00000   0.00000   0.00000   0.00000  -0.36996
  51 15  H  1S         -0.00139   0.00360   0.00000   0.00597   0.00000
  52 16  C  1S         -0.00484   0.01576  -0.01399   0.01905   0.00000
  53        2S          0.01652  -0.04508   0.04980  -0.07827   0.00000
  54        2PX         0.00899  -0.03991   0.03246  -0.00976   0.00000
  55        2PY        -0.02235   0.08131  -0.06168   0.07435   0.00000
  56        2PZ         0.00000   0.00000   0.00000   0.00000  -0.04831
  57 17  C  1S          0.00052  -0.00113   0.00217  -0.00269   0.00000
  58        2S         -0.00186   0.00369  -0.00848   0.01138   0.00000
  59        2PX        -0.00168   0.00368  -0.00382   0.00547   0.00000
  60        2PY        -0.00027   0.00366   0.00560  -0.00485   0.00000
  61        2PZ         0.00000   0.00000   0.00000   0.00000   0.01975
  62 18  H  1S         -0.00295   0.01441  -0.01143   0.00172   0.00000
  63 19  C  1S          0.00343  -0.01304   0.01296  -0.00319   0.00000
  64        2S         -0.01258   0.04397  -0.05209   0.00985   0.00000
  65        2PX        -0.01478   0.06135  -0.05417   0.02077   0.00000
  66        2PY         0.00793  -0.03149   0.03367  -0.00568   0.00000
  67        2PZ         0.00000   0.00000   0.00000   0.00000  -0.21271
  68 20  H  1S          0.00664  -0.02721   0.03177  -0.01646   0.00000
  69 21  C  1S          0.00267  -0.00958   0.01148  -0.00765   0.00000
  70        2S         -0.00968   0.03140  -0.04443   0.03234   0.00000
  71        2PX        -0.01190   0.04612  -0.05335   0.03303   0.00000
  72        2PY         0.00765  -0.03217   0.03222  -0.01392   0.00000
  73        2PZ         0.00000   0.00000   0.00000   0.00000   0.08676
  74 22  H  1S          0.00745  -0.03036   0.02837  -0.02023   0.00000
  75 23  C  1S         -0.00598   0.02082  -0.02319  -0.00402   0.00000
  76        2S          0.02131  -0.06732   0.09263   0.02464   0.00000
  77        2PX         0.02429  -0.09482   0.09248  -0.01682   0.00000
  78        2PY        -0.00365   0.02368   0.01582  -0.01560   0.00000
  79        2PZ         0.00000   0.00000   0.00000   0.00000  -0.06536
  80 24  H  1S          0.00745  -0.03036  -0.02837  -0.02023   0.00000
                          11        12        13        14        15
  11 3   H  1S          0.58262
  12 4   C  1S          0.02744   2.06563
  13        2S         -0.09960  -0.20124   0.83258
  14        2PX         0.07440  -0.00030   0.00591   0.60442
  15        2PY         0.10683  -0.00029   0.00627  -0.00013   0.60550
  16        2PZ         0.00000   0.00000   0.00000   0.00000   0.00000
  17 5   C  1S         -0.00262  -0.00455   0.01505   0.02231  -0.00229
  18        2S          0.00857   0.01375  -0.03659  -0.08105  -0.00098
  19        2PX        -0.01037  -0.02333   0.09299   0.09357  -0.02347
  20        2PY         0.00345  -0.00146  -0.00221   0.01808   0.01632
  21        2PZ         0.00000   0.00000   0.00000   0.00000   0.00000
  22 6   H  1S         -0.00980  -0.01983   0.07947   0.09465  -0.04825
  23 7   C  1S          0.00120  -0.00457   0.01637   0.01223   0.00593
  24        2S         -0.00588   0.01609  -0.05705  -0.04751  -0.02127
  25        2PX         0.00591  -0.01001   0.03690   0.01555   0.04038
  26        2PY        -0.00629  -0.00801   0.03189   0.04842  -0.03266
  27        2PZ         0.00000   0.00000   0.00000   0.00000   0.00000
  28 8   H  1S         -0.00167  -0.00211   0.00626   0.00778   0.00140
  29 9   C  1S          0.01483   0.02423  -0.06449  -0.09763   0.05468
  30        2S         -0.05816  -0.06467   0.09047   0.24788  -0.14137
  31        2PX         0.05396   0.09833  -0.25411  -0.35165   0.21272
  32        2PY        -0.01008  -0.05620   0.15283   0.20734  -0.09088
  33        2PZ         0.00000   0.00000   0.00000   0.00000   0.00000
  34 10  H  1S          0.02128   0.02739  -0.10076  -0.07908   0.10635
  35 11  C  1S          0.00762  -0.00469   0.01623   0.00887   0.02249
  36        2S         -0.03125   0.01548  -0.04533  -0.03857  -0.08272
  37        2PX         0.02912  -0.01452   0.05414   0.03477   0.06191
  38        2PY         0.02118  -0.01828   0.07529   0.00929   0.07467
  39        2PZ         0.00000   0.00000   0.00000   0.00000   0.00000
  40 12  H  1S          0.02128  -0.00212   0.00667  -0.00788   0.00369
  41 13  C  1S          0.02744  -0.00466   0.01485  -0.02268  -0.00209
  42        2S         -0.09960   0.01485  -0.03898   0.08627  -0.00034
  43        2PX        -0.07440   0.02268  -0.08627   0.09062   0.01965
  44        2PY         0.10683  -0.00209  -0.00034  -0.01965   0.01522
  45        2PZ         0.00000   0.00000   0.00000   0.00000   0.00000
  46 14  C  1S         -0.00139  -0.00484   0.01652  -0.00899   0.02235
  47        2S          0.00360   0.01576  -0.04508   0.03991  -0.08131
  48        2PX        -0.00000   0.01399  -0.04980   0.03246  -0.06168
  49        2PY        -0.00597  -0.01905   0.07827  -0.00976   0.07435
  50        2PZ         0.00000   0.00000   0.00000   0.00000   0.00000
  51 15  H  1S          0.02297  -0.01836   0.07181  -0.00325   0.10550
  52 16  C  1S         -0.01836  -0.00425   0.01488  -0.01079   0.00696
  53        2S          0.07181   0.01488  -0.05144   0.04069  -0.02672
  54        2PX         0.00325   0.01079  -0.04069   0.01614  -0.04384
  55        2PY        -0.10550  -0.00696   0.02672  -0.04384  -0.03088
  56        2PZ         0.00000   0.00000   0.00000   0.00000   0.00000
  57 17  C  1S          0.00120  -0.00018   0.00065  -0.00052   0.00041
  58        2S         -0.00588   0.00067  -0.00233   0.00231  -0.00134
  59        2PX        -0.00591   0.00030  -0.00106  -0.00064  -0.00350
  60        2PY        -0.00629  -0.00083   0.00348  -0.00438  -0.00226
  61        2PZ         0.00000   0.00000   0.00000   0.00000   0.00000
  62 18  H  1S         -0.00167  -0.00022   0.00065   0.00102   0.00475
  63 19  C  1S         -0.00262  -0.00145   0.00596  -0.00588  -0.00226
  64        2S          0.00856   0.00576  -0.02239   0.02496   0.00816
  65        2PX         0.01037   0.00578  -0.02548   0.02315   0.01270
  66        2PY         0.00345  -0.00223   0.00828  -0.01249  -0.00614
  67        2PZ         0.00000   0.00000   0.00000   0.00000   0.00000
  68 20  H  1S         -0.00980  -0.00404   0.01743  -0.01794  -0.00854
  69 21  C  1S          0.00762   0.00041  -0.00130   0.00198   0.00068
  70        2S         -0.03125  -0.00073   0.00162  -0.00534  -0.00539
  71        2PX        -0.02912  -0.00174   0.00594  -0.00488   0.00472
  72        2PY         0.02118   0.00245  -0.01034   0.00644  -0.00378
  73        2PZ         0.00000   0.00000   0.00000   0.00000   0.00000
  74 22  H  1S          0.03000   0.00150  -0.00726   0.00701   0.00534
  75 23  C  1S          0.01483   0.00345  -0.01308   0.01531   0.00787
  76        2S         -0.05816  -0.01330   0.04707  -0.06388  -0.03192
  77        2PX        -0.05396  -0.01389   0.05739  -0.06007  -0.03454
  78        2PY        -0.01008  -0.00343   0.01188  -0.02116  -0.00664
  79        2PZ         0.00000   0.00000   0.00000   0.00000   0.00000
  80 24  H  1S          0.03000  -0.01734   0.06787   0.00165   0.10262
                          16        17        18        19        20
  16        2PZ         0.76723
  17 5   C  1S          0.00000   2.06614
  18        2S          0.00000  -0.20175   0.82949
  19        2PX         0.00000  -0.00559   0.03399   0.61970
  20        2PY         0.00000   0.00285  -0.00724  -0.00930   0.60440
  21        2PZ        -0.05697   0.00000   0.00000   0.00000   0.00000
  22 6   H  1S          0.00000  -0.11535   0.29025   0.47547  -0.26764
  23 7   C  1S          0.00000   0.02406  -0.06321   0.00131  -0.11297
  24        2S          0.00000  -0.06321   0.08300  -0.01152   0.29174
  25        2PX         0.00000   0.00132  -0.01152   0.02048   0.00416
  26        2PY         0.00000   0.11297  -0.29174  -0.00416  -0.46972
  27        2PZ        -0.21651   0.00000   0.00000   0.00000   0.00000
  28 8   H  1S          0.00000   0.02736  -0.10536  -0.05782  -0.11484
  29 9   C  1S          0.00000   0.02659  -0.06878   0.10418   0.05831
  30        2S          0.00000  -0.06882   0.08306  -0.26097  -0.13690
  31        2PX         0.00000  -0.10110   0.24379  -0.33520  -0.21816
  32        2PY         0.00000  -0.06218   0.15903  -0.21151  -0.09545
  33        2PZ         0.36718   0.00000   0.00000   0.00000   0.00000
  34 10  H  1S          0.00000   0.02813  -0.10071   0.06409   0.10769
  35 11  C  1S          0.00000  -0.00453   0.01409  -0.00987   0.02088
  36        2S          0.00000   0.01363  -0.03245   0.04617  -0.07233
  37        2PX         0.00000   0.01218  -0.03729   0.03434  -0.05655
  38        2PY         0.00000  -0.01958   0.07948  -0.01163   0.07623
  39        2PZ        -0.03593   0.00000   0.00000   0.00000   0.00000
  40 12  H  1S          0.00000  -0.00040   0.00142  -0.00233  -0.00129
  41 13  C  1S          0.00000  -0.00145   0.00576  -0.00578  -0.00223
  42        2S          0.00000   0.00596  -0.02239   0.02548   0.00828
  43        2PX         0.00000   0.00588  -0.02496   0.02315   0.01249
  44        2PY         0.00000  -0.00226   0.00816  -0.01270  -0.00614
  45        2PZ        -0.05273   0.00000   0.00000   0.00000   0.00000
  46 14  C  1S          0.00000   0.00052  -0.00186   0.00168   0.00027
  47        2S          0.00000  -0.00113   0.00369  -0.00368  -0.00366
  48        2PX         0.00000  -0.00217   0.00848  -0.00382   0.00560
  49        2PY         0.00000   0.00269  -0.01138   0.00547  -0.00485
  50        2PZ        -0.04831   0.00000   0.00000   0.00000   0.00000
  51 15  H  1S          0.00000   0.00120  -0.00588   0.00591   0.00629
  52 16  C  1S          0.00000  -0.00018   0.00067  -0.00030   0.00083
  53        2S          0.00000   0.00065  -0.00233   0.00106  -0.00348
  54        2PX         0.00000   0.00052  -0.00231  -0.00064  -0.00438
  55        2PY         0.00000  -0.00041   0.00134  -0.00350  -0.00226
  56        2PZ        -0.20090   0.00000   0.00000   0.00000   0.00000
  57 17  C  1S          0.00000  -0.00011   0.00049  -0.00027   0.00014
  58        2S          0.00000   0.00049  -0.00205   0.00123  -0.00050
  59        2PX         0.00000   0.00027  -0.00123   0.00023  -0.00106
  60        2PY         0.00000  -0.00014   0.00050  -0.00106  -0.00090
  61        2PZ         0.13999   0.00000   0.00000   0.00000   0.00000
  62 18  H  1S          0.00000  -0.00008   0.00032   0.00039   0.00135
  63 19  C  1S          0.00000  -0.00027   0.00113  -0.00113  -0.00059
  64        2S          0.00000   0.00113  -0.00465   0.00507   0.00236
  65        2PX         0.00000   0.00113  -0.00507   0.00460   0.00306
  66        2PY         0.00000  -0.00059   0.00236  -0.00306  -0.00173
  67        2PZ         0.00644   0.00000   0.00000   0.00000   0.00000
  68 20  H  1S          0.00000  -0.00092   0.00392  -0.00402  -0.00223
  69 21  C  1S          0.00000   0.00009  -0.00039  -0.00004  -0.00070
  70        2S          0.00000  -0.00036   0.00149   0.00031   0.00300
  71        2PX         0.00000  -0.00020   0.00085   0.00110   0.00388
  72        2PY         0.00000   0.00009  -0.00028  -0.00048  -0.00152
  73        2PZ         0.01215   0.00000   0.00000   0.00000   0.00000
  74 22  H  1S          0.00000  -0.00010   0.00053  -0.00016  -0.00009
  75 23  C  1S          0.00000   0.00056  -0.00235   0.00241   0.00119
  76        2S          0.00000  -0.00242   0.00974  -0.01110  -0.00490
  77        2PX         0.00000  -0.00254   0.01111  -0.01046  -0.00588
  78        2PY         0.00000  -0.00123   0.00474  -0.00566  -0.00177
  79        2PZ        -0.14155   0.00000   0.00000   0.00000   0.00000
  80 24  H  1S          0.00000  -0.01976   0.07711  -0.00351   0.10635
                          21        22        23        24        25
  21        2PZ         0.79459
  22 6   H  1S          0.00000   0.57857
  23 7   C  1S          0.00000   0.02736   2.06614
  24        2S          0.00000  -0.10536  -0.20175   0.82949
  25        2PX         0.00000  -0.05782  -0.00559   0.03399   0.61970
  26        2PY         0.00000   0.11483  -0.00285   0.00724   0.00930
  27        2PZ         0.38791   0.00000   0.00000   0.00000   0.00000
  28 8   H  1S          0.00000  -0.07103  -0.11535   0.29025   0.47547
  29 9   C  1S          0.00000   0.02864  -0.00453   0.01409  -0.00987
  30        2S          0.00000  -0.10357   0.01363  -0.03245   0.04617
  31        2PX         0.00000  -0.12429   0.01218  -0.03729   0.03435
  32        2PY         0.00000  -0.00511   0.01958  -0.07948   0.01163
  33        2PZ         0.60129   0.00000   0.00000   0.00000   0.00000
  34 10  H  1S          0.00000  -0.08016  -0.01976   0.07711  -0.00351
  35 11  C  1S          0.00000  -0.01870   0.02659  -0.06878   0.10418
  36        2S          0.00000   0.07124  -0.06882   0.08306  -0.26097
  37        2PX         0.00000   0.08156  -0.10110   0.24379  -0.33520
  38        2PY         0.00000  -0.05151   0.06218  -0.15903   0.21151
  39        2PZ        -0.06709   0.00000   0.00000   0.00000   0.00000
  40 12  H  1S          0.00000  -0.00137  -0.00010   0.00053  -0.00016
  41 13  C  1S          0.00000  -0.00404  -0.00018   0.00067  -0.00030
  42        2S          0.00000   0.01743   0.00065  -0.00233   0.00106
  43        2PX         0.00000   0.01794   0.00052  -0.00231  -0.00064
  44        2PY         0.00000  -0.00854   0.00041  -0.00134   0.00350
  45        2PZ         0.00644   0.00000   0.00000   0.00000   0.00000
  46 14  C  1S          0.00000  -0.00295   0.00343  -0.01258   0.01478
  47        2S          0.00000   0.01441  -0.01304   0.04397  -0.06135
  48        2PX         0.00000   0.01143  -0.01296   0.05209  -0.05417
  49        2PY         0.00000  -0.00172   0.00319  -0.00985   0.02077
  50        2PZ         0.01975   0.00000   0.00000   0.00000   0.00000
  51 15  H  1S          0.00000  -0.00167  -0.00262   0.00856  -0.01037
  52 16  C  1S          0.00000  -0.00022  -0.00145   0.00576  -0.00578
  53        2S          0.00000   0.00065   0.00596  -0.02239   0.02548
  54        2PX         0.00000  -0.00102   0.00588  -0.02496   0.02315
  55        2PY         0.00000  -0.00475   0.00226  -0.00816   0.01270
  56        2PZ         0.13999   0.00000   0.00000   0.00000   0.00000
  57 17  C  1S          0.00000  -0.00008  -0.00027   0.00113  -0.00113
  58        2S          0.00000   0.00032   0.00113  -0.00465   0.00507
  59        2PX         0.00000  -0.00039   0.00113  -0.00507   0.00460
  60        2PY         0.00000  -0.00135   0.00059  -0.00236   0.00306
  61        2PZ        -0.09983   0.00000   0.00000   0.00000   0.00000
  62 18  H  1S          0.00000   0.00058  -0.00092   0.00392  -0.00402
  63 19  C  1S          0.00000  -0.00092  -0.00011   0.00049  -0.00027
  64        2S          0.00000   0.00392   0.00049  -0.00205   0.00123
  65        2PX         0.00000   0.00402   0.00027  -0.00123   0.00023
  66        2PY         0.00000  -0.00223   0.00014  -0.00050   0.00106
  67        2PZ        -0.00006   0.00000   0.00000   0.00000   0.00000
  68 20  H  1S          0.00000  -0.00360  -0.00008   0.00032   0.00039
  69 21  C  1S          0.00000  -0.00025   0.00056  -0.00235   0.00241
  70        2S          0.00000   0.00143  -0.00242   0.00974  -0.01110
  71        2PX         0.00000   0.00145  -0.00254   0.01111  -0.01046
  72        2PY         0.00000  -0.00028   0.00123  -0.00474   0.00566
  73        2PZ        -0.00632   0.00000   0.00000   0.00000   0.00000
  74 22  H  1S          0.00000   0.00056  -0.00040   0.00142  -0.00233
  75 23  C  1S          0.00000   0.00196   0.00009  -0.00039  -0.00004
  76        2S          0.00000  -0.00861  -0.00036   0.00149   0.00031
  77        2PX         0.00000  -0.00928  -0.00020   0.00085   0.00110
  78        2PY         0.00000  -0.00459  -0.00009   0.00028   0.00048
  79        2PZ         0.07901   0.00000   0.00000   0.00000   0.00000
  80 24  H  1S          0.00000  -0.04676   0.02813  -0.10071   0.06409
                          26        27        28        29        30
  26        2PY         0.60440
  27        2PZ         0.00000   0.79459
  28 8   H  1S          0.26764   0.00000   0.57857
  29 9   C  1S         -0.02088   0.00000  -0.01870   2.06640
  30        2S          0.07233   0.00000   0.07124  -0.20300   0.83432
  31        2PX         0.05655   0.00000   0.08156   0.00017  -0.00980
  32        2PY         0.07623   0.00000   0.05151   0.00645  -0.03393
  33        2PZ         0.00000  -0.06709   0.00000   0.00000   0.00000
  34 10  H  1S         -0.10635   0.00000  -0.04676  -0.11500   0.28844
  35 11  C  1S         -0.05831   0.00000   0.02864  -0.00426   0.01460
  36        2S          0.13690   0.00000  -0.10357   0.01460  -0.04904
  37        2PX         0.21816   0.00000  -0.12429   0.00084  -0.00495
  38        2PY        -0.09545   0.00000   0.00511  -0.01219   0.04505
  39        2PZ         0.00000   0.60129   0.00000   0.00000   0.00000
  40 12  H  1S          0.00009   0.00000   0.00056   0.00137  -0.00536
  41 13  C  1S         -0.00083   0.00000  -0.00022   0.00345  -0.01330
  42        2S          0.00348   0.00000   0.00065  -0.01308   0.04707
  43        2PX         0.00438   0.00000  -0.00102  -0.01531   0.06388
  44        2PY        -0.00226   0.00000   0.00475   0.00787  -0.03193
  45        2PZ         0.00000   0.14000   0.00000   0.00000   0.00000
  46 14  C  1S         -0.00793   0.00000   0.00664   0.00267  -0.00968
  47        2S          0.03149   0.00000  -0.02721  -0.00958   0.03140
  48        2PX         0.03367   0.00000  -0.03177  -0.01148   0.04443
  49        2PY        -0.00568   0.00000   0.01646   0.00765  -0.03234
  50        2PZ         0.00000  -0.21271   0.00000   0.00000   0.00000
  51 15  H  1S         -0.00345   0.00000  -0.00980   0.00762  -0.03125
  52 16  C  1S          0.00223   0.00000  -0.00404   0.00041  -0.00073
  53        2S         -0.00828   0.00000   0.01743  -0.00130   0.00162
  54        2PX        -0.01249   0.00000   0.01794  -0.00198   0.00534
  55        2PY        -0.00614   0.00000   0.00854  -0.00068   0.00539
  56        2PZ         0.00000   0.00644   0.00000   0.00000   0.00000
  57 17  C  1S          0.00059   0.00000  -0.00092   0.00009  -0.00036
  58        2S         -0.00236   0.00000   0.00392  -0.00039   0.00149
  59        2PX        -0.00306   0.00000   0.00402   0.00004  -0.00031
  60        2PY        -0.00173   0.00000   0.00223   0.00070  -0.00300
  61        2PZ         0.00000  -0.00006   0.00000   0.00000   0.00000
  62 18  H  1S          0.00223   0.00000  -0.00360  -0.00025   0.00143
  63 19  C  1S         -0.00014   0.00000  -0.00008   0.00056  -0.00242
  64        2S          0.00050   0.00000   0.00032  -0.00235   0.00974
  65        2PX         0.00106   0.00000  -0.00039  -0.00241   0.01110
  66        2PY        -0.00090   0.00000   0.00135   0.00119  -0.00490
  67        2PZ         0.00000  -0.09983   0.00000   0.00000   0.00000
  68 20  H  1S         -0.00135   0.00000   0.00058   0.00196  -0.00861
  69 21  C  1S         -0.00119   0.00000   0.00196   0.00045  -0.00220
  70        2S          0.00490   0.00000  -0.00861  -0.00220   0.01014
  71        2PX         0.00588   0.00000  -0.00928  -0.00184   0.00914
  72        2PY        -0.00177   0.00000   0.00459   0.00032  -0.00203
  73        2PZ         0.00000   0.07901   0.00000   0.00000   0.00000
  74 22  H  1S          0.00129   0.00000  -0.00137   0.00051  -0.00240
  75 23  C  1S          0.00070   0.00000  -0.00025  -0.00090   0.00369
  76        2S         -0.00300   0.00000   0.00143   0.00369  -0.01445
  77        2PX        -0.00388   0.00000   0.00145   0.00456  -0.02017
  78        2PY        -0.00152   0.00000   0.00028   0.00233  -0.00891
  79        2PZ         0.00000  -0.00632   0.00000   0.00000   0.00000
  80 24  H  1S         -0.10769   0.00000  -0.08016  -0.00172   0.00556
                          31        32        33        34        35
  31        2PX         0.59857
  32        2PY         0.00489   0.62233
  33        2PZ         0.00000   0.00000   0.80201
  34 10  H  1S          0.00124  -0.54571   0.00000   0.58043
  35 11  C  1S          0.00084   0.01219   0.00000  -0.00172   2.06640
  36        2S         -0.00495  -0.04505   0.00000   0.00556  -0.20300
  37        2PX        -0.05142   0.00086   0.00000  -0.00182   0.00017
  38        2PY        -0.00086   0.04051   0.00000  -0.00541  -0.00645
  39        2PZ         0.00000   0.00000  -0.35129   0.00000   0.00000
  40 12  H  1S          0.00591  -0.00095   0.00000   0.00021   0.00051
  41 13  C  1S          0.01389  -0.00343   0.00000  -0.00212   0.00041
  42        2S         -0.05739   0.01188   0.00000   0.00667  -0.00130
  43        2PX        -0.06007   0.02116   0.00000   0.00788  -0.00198
  44        2PY         0.03454  -0.00664   0.00000   0.00369   0.00068
  45        2PZ         0.00000   0.00000  -0.14155   0.00000   0.00000
  46 14  C  1S          0.01190  -0.00765   0.00000   0.00745  -0.00598
  47        2S         -0.04612   0.03217   0.00000  -0.03036   0.02082
  48        2PX        -0.05335   0.03222   0.00000  -0.02837   0.02319
  49        2PY         0.03303  -0.01392   0.00000   0.02023   0.00402
  50        2PZ         0.00000   0.00000   0.08676   0.00000   0.00000
  51 15  H  1S          0.02912  -0.02118   0.00000   0.03000   0.01483
  52 16  C  1S          0.00174  -0.00245   0.00000   0.00150   0.00345
  53        2S         -0.00594   0.01034   0.00000  -0.00726  -0.01308
  54        2PX        -0.00488   0.00644   0.00000  -0.00701  -0.01531
  55        2PY         0.00472  -0.00378   0.00000  -0.00534  -0.00787
  56        2PZ         0.00000   0.00000   0.01215   0.00000   0.00000
  57 17  C  1S          0.00020  -0.00009   0.00000  -0.00010   0.00056
  58        2S         -0.00085   0.00028   0.00000   0.00053  -0.00235
  59        2PX         0.00110  -0.00048   0.00000   0.00016  -0.00241
  60        2PY         0.00388  -0.00152   0.00000   0.00009  -0.00119
  61        2PZ         0.00000   0.00000  -0.00632   0.00000   0.00000
  62 18  H  1S         -0.00145   0.00028   0.00000   0.00056   0.00196
  63 19  C  1S          0.00254  -0.00123   0.00000  -0.00040   0.00009
  64        2S         -0.01111   0.00474   0.00000   0.00142  -0.00039
  65        2PX        -0.01046   0.00566   0.00000   0.00233   0.00004
  66        2PY         0.00588  -0.00177   0.00000  -0.00129  -0.00070
  67        2PZ         0.00000   0.00000   0.07901   0.00000   0.00000
  68 20  H  1S          0.00928  -0.00459   0.00000  -0.00137  -0.00025
  69 21  C  1S          0.00184  -0.00032   0.00000   0.00051  -0.00090
  70        2S         -0.00914   0.00203   0.00000  -0.00240   0.00369
  71        2PX        -0.00750   0.00088   0.00000  -0.00024   0.00456
  72        2PY         0.00088   0.00133   0.00000  -0.00062  -0.00233
  73        2PZ         0.00000   0.00000  -0.03357   0.00000   0.00000
  74 22  H  1S          0.00024   0.00062   0.00000   0.00075   0.00137
  75 23  C  1S         -0.00456   0.00233   0.00000   0.00137   0.00045
  76        2S          0.02017  -0.00891   0.00000  -0.00536  -0.00220
  77        2PX         0.02172  -0.01222   0.00000  -0.00591  -0.00184
  78        2PY         0.01222  -0.00442   0.00000  -0.00095  -0.00032
  79        2PZ         0.00000   0.00000   0.01206   0.00000   0.00000
  80 24  H  1S         -0.00182   0.00541   0.00000   0.02280  -0.11500
                          36        37        38        39        40
  36        2S          0.83432
  37        2PX        -0.00980   0.59857
  38        2PY         0.03393  -0.00489   0.62233
  39        2PZ         0.00000   0.00000   0.00000   0.80201
  40 12  H  1S         -0.00240   0.00024  -0.00062   0.00000   0.58043
  41 13  C  1S         -0.00073   0.00174   0.00245   0.00000   0.02739
  42        2S          0.00162  -0.00594  -0.01034   0.00000  -0.10076
  43        2PX         0.00534  -0.00488  -0.00644   0.00000   0.07908
  44        2PY        -0.00539  -0.00472  -0.00378   0.00000   0.10635
  45        2PZ         0.00000   0.00000   0.00000   0.01215   0.00000
  46 14  C  1S          0.02131  -0.02429   0.00365   0.00000   0.00745
  47        2S         -0.06732   0.09482  -0.02368   0.00000  -0.03036
  48        2PX        -0.09263   0.09248   0.01582   0.00000   0.02837
  49        2PY        -0.02464  -0.01682  -0.01560   0.00000   0.02023
  50        2PZ         0.00000   0.00000   0.00000  -0.06536   0.00000
  51 15  H  1S         -0.05816   0.05396   0.01008   0.00000   0.03000
  52 16  C  1S         -0.01330   0.01389   0.00343   0.00000  -0.01734
  53        2S          0.04707  -0.05739  -0.01188   0.00000   0.06787
  54        2PX         0.06388  -0.06007  -0.02116   0.00000  -0.00165
  55        2PY         0.03192  -0.03454  -0.00664   0.00000  -0.10262
  56        2PZ         0.00000   0.00000   0.00000  -0.14155   0.00000
  57 17  C  1S         -0.00242   0.00254   0.00123   0.00000  -0.01976
[...]
   7        2S          1.16255
   8        2PX         0.93961
   9        2PY         0.98442
  10        2PZ         1.00410
  11 3   H  1S          0.91495
  12 4   C  1S          1.99009
  13        2S          1.13676
  14        2PX         0.94438
  15        2PY         0.93897
  16        2PZ         0.99648
  17 5   C  1S          1.99028
  18        2S          1.16074
  19        2PX         0.98199
  20        2PY         0.95365
  21        2PZ         1.00038
  22 6   H  1S          0.91195
  23 7   C  1S          1.99028
  24        2S          1.16074
  25        2PX         0.98199
  26        2PY         0.95365
  27        2PZ         1.00038
  28 8   H  1S          0.91195
  29 9   C  1S          1.99030
  30        2S          1.16199
  31        2PX         0.94362
  32        2PY         0.98596
  33        2PZ         1.00109
  34 10  H  1S          0.91340
  35 11  C  1S          1.99030
  36        2S          1.16199
  37        2PX         0.94362
  38        2PY         0.98596
  39        2PZ         1.00109
  40 12  H  1S          0.91340
  41 13  C  1S          1.99009
  42        2S          1.13676
  43        2PX         0.94438
  44        2PY         0.93897
  45        2PZ         0.99648
  46 14  C  1S          1.99031
  47        2S          1.16255
  48        2PX         0.93961
  49        2PY         0.98442
  50        2PZ         1.00410
  51 15  H  1S          0.91495
  52 16  C  1S          1.99009
  53        2S          1.13676
  54        2PX         0.94438
  55        2PY         0.93897
  56        2PZ         0.99648
  57 17  C  1S          1.99028
  58        2S          1.16074
  59        2PX         0.98199
  60        2PY         0.95365
  61        2PZ         1.00038
  62 18  H  1S          0.91195
  63 19  C  1S          1.99028
  64        2S          1.16074
  65        2PX         0.98199
  66        2PY         0.95365
  67        2PZ         1.00038
  68 20  H  1S          0.91195
  69 21  C  1S          1.99030
  70        2S          1.16199
  71        2PX         0.94362
  72        2PY         0.98596
  73        2PZ         1.00109
  74 22  H  1S          0.91340
  75 23  C  1S          1.99030
  76        2S          1.16199
  77        2PX         0.94362
  78        2PY         0.98596
  79        2PZ         1.00109
  80 24  H  1S          0.91340
          Condensed to atoms (all electrons):
               1          2          3          4          5          6
     1  C    4.775401  -0.028629   0.001362   0.448960  -0.009915   0.000032
     2  C   -0.028629   4.836334   0.386329   0.494750   0.000852  -0.000019
     3  H    0.001362   0.386329   0.582619  -0.025494   0.000024  -0.000002
     4  C    0.448960   0.494750  -0.025494   4.775401  -0.028298   0.001483
     5  C   -0.009915   0.000852   0.000024  -0.028298   4.814099   0.388752
     6  H    0.000032  -0.000019  -0.000002   0.001483   0.388752   0.578568
     7  C   -0.028298   0.000031  -0.000001  -0.009915   0.467235  -0.024888
     8  H    0.001483   0.000001  -0.000000   0.000032  -0.024888  -0.003466
     9  C   -0.027598  -0.029735  -0.003964   0.464176   0.532044  -0.025801
    10  H    0.001275  -0.003710   0.001081  -0.025220  -0.025392  -0.004076
    11  C    0.464177   0.000934  -0.000019  -0.027598  -0.028975   0.001402
    12  H   -0.000001  -0.003709   0.001081   0.000016   0.000000  -0.000000
    13  C   -0.009214   0.494750  -0.025494  -0.027311  -0.000010   0.000000
    14  C    0.494750  -0.010612   0.000024  -0.028629   0.000031   0.000001
    15  H   -0.025494   0.000024   0.000002   0.001362  -0.000001  -0.000000
    16  C   -0.027311  -0.028629   0.001362  -0.009214   0.000000   0.000000
    17  C   -0.000010   0.000031  -0.000001   0.000000  -0.000000   0.000000
    18  H    0.000000   0.000001  -0.000000   0.000000   0.000000   0.000000
    19  C    0.000000   0.000852   0.000024  -0.000010  -0.000000   0.000000
    20  H    0.000000  -0.000019  -0.000002   0.000000   0.000000  -0.000000
    21  C    0.000883   0.000934  -0.000019   0.000025   0.000000   0.000000
    22  H    0.000016  -0.000019   0.000000  -0.000001   0.000000   0.000000
    23  C    0.000025  -0.029734  -0.003964   0.000883   0.000000  -0.000000
    24  H   -0.025220  -0.000019   0.000000   0.001275   0.001484  -0.000035
               7          8          9         10         11         12
     1  C   -0.028298   0.001483  -0.027598   0.001275   0.464177  -0.000001
     2  C    0.000031   0.000001  -0.029735  -0.003710   0.000934  -0.003709
     3  H   -0.000001  -0.000000  -0.003964   0.001081  -0.000019   0.001081
     4  C   -0.009915   0.000032   0.464176  -0.025220  -0.027598   0.000016
     5  C    0.467235  -0.024888   0.532044  -0.025392  -0.028975   0.000000
     6  H   -0.024888  -0.003466  -0.025801  -0.004076   0.001402  -0.000000
     7  C    4.814099   0.388751  -0.028975   0.001484   0.532044   0.000000
     8  H    0.388751   0.578568   0.001402  -0.000035  -0.025801   0.000000
     9  C   -0.028975   0.001402   4.822797   0.387541  -0.010768  -0.000001
    10  H    0.001484  -0.000035   0.387541   0.580429   0.000026   0.000000
    11  C    0.532044  -0.025801  -0.010768   0.000026   4.822797  -0.000000
    12  H    0.000000   0.000000  -0.000001   0.000000  -0.000000   0.580429
    13  C    0.000000   0.000000   0.000883   0.000016   0.000025  -0.025220
    14  C    0.000852  -0.000019   0.000934  -0.000019  -0.029734  -0.000019
    15  H    0.000024  -0.000002  -0.000019   0.000000  -0.003964   0.000000
    16  C   -0.000010   0.000000   0.000025  -0.000001   0.000883   0.001275
    17  C   -0.000000   0.000000   0.000000   0.000000   0.000000   0.001484
    18  H    0.000000  -0.000000   0.000000   0.000000  -0.000000  -0.000035
    19  C   -0.000000   0.000000   0.000000   0.000000   0.000000  -0.025392
    20  H    0.000000   0.000000  -0.000000  -0.000000   0.000000  -0.004076
    21  C    0.000000  -0.000000   0.000000  -0.000000  -0.000006   0.000026
    22  H    0.000000  -0.000000  -0.000000   0.000000  -0.000001   0.000002
    23  C    0.000000   0.000000  -0.000006  -0.000001   0.000000   0.387541
    24  H   -0.025392  -0.004076   0.000026   0.000002   0.387541   0.000000
              13         14         15         16         17         18
     1  C   -0.009214   0.494750  -0.025494  -0.027311  -0.000010   0.000000
     2  C    0.494750  -0.010612   0.000024  -0.028629   0.000031   0.000001
     3  H   -0.025494   0.000024   0.000002   0.001362  -0.000001  -0.000000
     4  C   -0.027311  -0.028629   0.001362  -0.009214   0.000000   0.000000
     5  C   -0.000010   0.000031  -0.000001   0.000000  -0.000000   0.000000
     6  H    0.000000   0.000001  -0.000000   0.000000   0.000000   0.000000
     7  C    0.000000   0.000852   0.000024  -0.000010  -0.000000   0.000000
     8  H    0.000000  -0.000019  -0.000002   0.000000   0.000000  -0.000000
     9  C    0.000883   0.000934  -0.000019   0.000025   0.000000   0.000000
    10  H    0.000016  -0.000019   0.000000  -0.000001   0.000000   0.000000
    11  C    0.000025  -0.029734  -0.003964   0.000883   0.000000  -0.000000
    12  H   -0.025220  -0.000019   0.000000   0.001275   0.001484  -0.000035
    13  C    4.775401  -0.028629   0.001362   0.448960  -0.009915   0.000032
    14  C   -0.028629   4.836334   0.386329   0.494750   0.000852  -0.000019
    15  H    0.001362   0.386329   0.582619  -0.025494   0.000024  -0.000002
    16  C    0.448960   0.494750  -0.025494   4.775401  -0.028298   0.001483
    17  C   -0.009915   0.000852   0.000024  -0.028298   4.814099   0.388752
    18  H    0.000032  -0.000019  -0.000002   0.001483   0.388752   0.578568
    19  C   -0.028298   0.000031  -0.000001  -0.009915   0.467235  -0.024888
    20  H    0.001483   0.000001  -0.000000   0.000032  -0.024888  -0.003466
    21  C   -0.027598  -0.029735  -0.003964   0.464176   0.532044  -0.025801
    22  H    0.001275  -0.003710   0.001081  -0.025220  -0.025392  -0.004076
    23  C    0.464177   0.000934  -0.000019  -0.027598  -0.028975   0.001402
    24  H   -0.000001  -0.003709   0.001081   0.000016   0.000000  -0.000000
              19         20         21         22         23         24
     1  C    0.000000   0.000000   0.000883   0.000016   0.000025  -0.025220
     2  C    0.000852  -0.000019   0.000934  -0.000019  -0.029734  -0.000019
     3  H    0.000024  -0.000002  -0.000019   0.000000  -0.003964   0.000000
     4  C   -0.000010   0.000000   0.000025  -0.000001   0.000883   0.001275
     5  C   -0.000000   0.000000   0.000000   0.000000   0.000000   0.001484
     6  H    0.000000  -0.000000   0.000000   0.000000  -0.000000  -0.000035
     7  C   -0.000000   0.000000   0.000000   0.000000   0.000000  -0.025392
     8  H    0.000000   0.000000  -0.000000  -0.000000   0.000000  -0.004076
     9  C    0.000000  -0.000000   0.000000  -0.000000  -0.000006   0.000026
    10  H    0.000000  -0.000000  -0.000000   0.000000  -0.000001   0.000002
    11  C    0.000000   0.000000  -0.000006  -0.000001   0.000000   0.387541
    12  H   -0.025392  -0.004076   0.000026   0.000002   0.387541   0.000000
    13  C   -0.028298   0.001483  -0.027598   0.001275   0.464177  -0.000001
    14  C    0.000031   0.000001  -0.029735  -0.003710   0.000934  -0.003709
    15  H   -0.000001  -0.000000  -0.003964   0.001081  -0.000019   0.001081
    16  C   -0.009915   0.000032   0.464176  -0.025220  -0.027598   0.000016
    17  C    0.467235  -0.024888   0.532044  -0.025392  -0.028975   0.000000
    18  H   -0.024888  -0.003466  -0.025801  -0.004076   0.001402  -0.000000
    19  C    4.814099   0.388751  -0.028975   0.001484   0.532044   0.000000
    20  H    0.388751   0.578568   0.001402  -0.000035  -0.025801   0.000000
    21  C   -0.028975   0.001402   4.822797   0.387541  -0.010768  -0.000001
    22  H    0.001484  -0.000035   0.387541   0.580429   0.000026   0.000000
    23  C    0.532044  -0.025801  -0.010768   0.000026   4.822797  -0.000000
    24  H    0.000000   0.000000  -0.000001   0.000000  -0.000000   0.580429
 Mulliken charges:
               1
     1  C   -0.006674
     2  C   -0.080989
     3  H    0.085049
     4  C   -0.006674
     5  C   -0.087042
     6  H    0.088048
     7  C   -0.087042
     8  H    0.088048
     9  C   -0.082960
    10  H    0.086598
    11  C   -0.082961
    12  H    0.086598
    13  C   -0.006674
    14  C   -0.080989
    15  H    0.085049
    16  C   -0.006674
    17  C   -0.087042
    18  H    0.088048
    19  C   -0.087042
    20  H    0.088048
    21  C   -0.082960
    22  H    0.086598
    23  C   -0.082961
    24  H    0.086598
 Sum of Mulliken charges =  -0.00000
 Mulliken charges with hydrogens summed into heavy atoms:
               1
     1  C   -0.006674
     2  C    0.004059
     4  C   -0.006674
     5  C    0.001006
     7  C    0.001007
     9  C    0.003638
    11  C    0.003638
    13  C   -0.006674
    14  C    0.004059
    16  C   -0.006674
    17  C    0.001006
    19  C    0.001007
    21  C    0.003638
    23  C    0.003638
 Electronic spatial extent (au):  <R**2>=           2876.5400
 Charge=              0.0000 electrons
 Dipole moment (field-independent basis, Debye):
    X=              0.0000    Y=              0.0000    Z=              0.0000  Tot=              0.0000
 Quadrupole moment (field-independent basis, Debye-Ang):
   XX=            -66.6892   YY=            -66.8497   ZZ=            -78.4776
   XY=             -0.0000   XZ=              0.0000   YZ=              0.0000
 Traceless Quadrupole moment (field-independent basis, Debye-Ang):
   XX=              3.9830   YY=              3.8224   ZZ=             -7.8054
   XY=             -0.0000   XZ=              0.0000   YZ=              0.0000
 Octapole moment (field-independent basis, Debye-Ang**2):
  XXX=              0.0000  YYY=             -0.0000  ZZZ=              0.0000  XYY=             -0.0000
  XXY=             -0.0000  XXZ=              0.0000  XZZ=             -0.0000  YZZ=             -0.0000
  YYZ=              0.0000  XYZ=              0.0000
 Hexadecapole moment (field-independent basis, Debye-Ang**3):
 XXXX=          -2692.5302 YYYY=           -642.6228 ZZZZ=            -63.8199 XXXY=              0.0008
 XXXZ=              0.0000 YYYX=              0.0010 YYYZ=              0.0000 ZZZX=              0.0000
 ZZZY=              0.0000 XXYY=           -564.5756 XXZZ=           -538.8310 YYZZ=           -137.8655
 XXYZ=              0.0000 YYXZ=              0.0000 ZZXY=              0.0003
 N-N= 7.613683105068D+02 E-N=-2.756335433542D+03  KE= 5.236874667964D+02
 Symmetry AG   KE= 2.528780484295D+02
 Symmetry BG   KE= 1.028990144377D+01
 Symmetry AU   KE= 7.142015937963D+00
 Symmetry BU   KE= 2.533775009851D+02
 There are a total of      193740 grid points.
 ElSum from          density=       94.0001462079
 ElSum from atomic densities=       93.9999688395
 Hirshfeld populations at iteration   1 (CA, CB, DipXYZ):
               1          2          3          4          5
     1  C    3.003502   3.003502   0.010034  -0.009105  -0.000000
     2  C    3.021478   3.021478  -0.000000  -0.050855  -0.000000
     3  H    0.476343   0.476343   0.000000  -0.160842  -0.000000
     4  C    3.003502   3.003502   0.010034   0.009105  -0.000000
     5  C    3.023360   3.023360   0.065944  -0.012724  -0.000000
     6  H    0.475997   0.475997   0.141727  -0.080230  -0.000000
     7  C    3.023360   3.023360   0.065943   0.012723  -0.000000
     8  H    0.475997   0.475997   0.141728   0.080230  -0.000000
     9  C    3.022187   3.022187  -0.020996  -0.058176  -0.000000
    10  H    0.476061   0.476061   0.004046  -0.161858  -0.000000
    11  C    3.022187   3.022187  -0.020996   0.058176  -0.000000
    12  H    0.476061   0.476061  -0.004047  -0.161858  -0.000000
    13  C    3.003502   3.003502  -0.010034   0.009105  -0.000000
    14  C    3.021478   3.021478   0.000000   0.050855   0.000000
    15  H    0.476343   0.476343  -0.000000   0.160842  -0.000000
    16  C    3.003502   3.003502  -0.010034  -0.009105  -0.000000
    17  C    3.023360   3.023360  -0.065944   0.012724  -0.000000
    18  H    0.475997   0.475997  -0.141727   0.080230  -0.000000
    19  C    3.023360   3.023360  -0.065943  -0.012723   0.000000
    20  H    0.475997   0.475997  -0.141728  -0.080230   0.000000
    21  C    3.022187   3.022187   0.020996   0.058176  -0.000000
    22  H    0.476061   0.476061  -0.004046   0.161858   0.000000
    23  C    3.022187   3.022187   0.020996  -0.058176  -0.000000
    24  H    0.476061   0.476061   0.004047   0.161858  -0.000000
       Tot  47.000073  47.000073  -0.000000   0.000000  -0.000000

 Dip from Atomic Chgs              0.000000  -0.000000   0.000000
         Total Dipole              0.000000   0.000000  -0.000000

 Hirshfeld charges, spin densities, dipoles, and CM5 charges using IRadAn=      4:
              Q-H        S-H        Dx         Dy         Dz        Q-CM5   
     1  C   -0.007004   0.000000   0.010034  -0.009105  -0.000000  -0.014049
     2  C   -0.042957   0.000000  -0.000000  -0.050855  -0.000000  -0.091744
     3  H    0.047314   0.000000   0.000000  -0.160842  -0.000000   0.103106
     4  C   -0.007004   0.000000   0.010034   0.009105  -0.000000  -0.014049
     5  C   -0.046721   0.000000   0.065944  -0.012724  -0.000000  -0.100758
     6  H    0.048005   0.000000   0.141727  -0.080230  -0.000000   0.102257
     7  C   -0.046721   0.000000   0.065943   0.012723  -0.000000  -0.100758
     8  H    0.048005   0.000000   0.141728   0.080230  -0.000000   0.102256
     9  C   -0.044374   0.000000  -0.020996  -0.058176  -0.000000  -0.096034
    10  H    0.047878   0.000000   0.004046  -0.161858  -0.000000   0.102867
    11  C   -0.044374   0.000000  -0.020996   0.058176  -0.000000  -0.096034
    12  H    0.047878   0.000000  -0.004047  -0.161858  -0.000000   0.102867
    13  C   -0.007004   0.000000  -0.010034   0.009105  -0.000000  -0.014049
    14  C   -0.042957   0.000000   0.000000   0.050855   0.000000  -0.091744
    15  H    0.047314   0.000000  -0.000000   0.160842  -0.000000   0.103106
    16  C   -0.007004   0.000000  -0.010034  -0.009105  -0.000000  -0.014049
    17  C   -0.046721   0.000000  -0.065944   0.012724  -0.000000  -0.100758
    18  H    0.048005   0.000000  -0.141727   0.080230  -0.000000   0.102257
    19  C   -0.046721   0.000000  -0.065943  -0.012723   0.000000  -0.100758
    20  H    0.048005   0.000000  -0.141728  -0.080230   0.000000   0.102256
    21  C   -0.044374   0.000000   0.020996   0.058176  -0.000000  -0.096034
    22  H    0.047878   0.000000  -0.004046   0.161858   0.000000   0.102867
    23  C   -0.044374   0.000000   0.020996  -0.058176  -0.000000  -0.096034
    24  H    0.047878   0.000000   0.004047   0.161858  -0.000000   0.102867
       Tot  -0.000146   0.000000  -0.000000   0.000000  -0.000000  -0.000146
 Hirshfeld charges with hydrogens summed into heavy atoms:
              Q-H       Q-CM5   
     1  C   -0.007004  -0.014049
     2  C    0.004357   0.011362
     4  C   -0.007004  -0.014049
     5  C    0.001285   0.001499
     7  C    0.001285   0.001498
     9  C    0.003504   0.006833
    11  C    0.003504   0.006833
    13  C   -0.007004  -0.014049
    14  C    0.004357   0.011362
    16  C   -0.007004  -0.014049
    17  C    0.001285   0.001499
    19  C    0.001285   0.001498
    21  C    0.003504   0.006833
    23  C    0.003504   0.006833
 
 EQQ=  0.00000000000     EQD=  0.00000000000     EDD= 0.131274818654E-01
 EQQ+QD+DD= 0.131274818654E-01
 
 Orbital energies and kinetic energies (alpha):
                                 1                 2
  43         (AU)--O          -0.210735          1.222964
  44         (BG)--O          -0.206791          1.238101
  45         (AU)--O          -0.167503          1.322108
  46         (BG)--O          -0.156754          1.352397
  47         (BG)--O          -0.108785          1.452394
  48         (AU)--V          -0.008429          1.669906
  49         (AU)--V           0.046434          1.815415
  50         (BG)--V           0.061334          1.832161
  51         (AU)--V           0.111747          1.951145
  52         (BG)--V           0.115946          1.956766
 Total kinetic energy from orbitals= 5.236874667964D+02
 No NMR shielding tensors so no spin-rotation constants.
 Leave Link  601 at Thu Dec 26 16:59:46 2024, MaxMem=   104857600 cpu:               4.4 elap:               0.5
 (Enter /cm/shared/uniol/sw/SYSTEM/gaussian/g16.c01/g16/l9999.exe)

 Test job not archived.
 1\1\GINC-MPCS030\SP\RPBEPBE\STO-3G\C14H10\TOXO0610\26-Dec-2024\0\\#p p
 bepbe/STO-3G pop=regular scf=tight int=finegrid pop=Hirshfeld\\orbital
 s calculation\\0,1\C,0,-0.726956,1.230488,0.\C,0,1.411458,0.000001,0.\
 H,0,2.508008,0.000003,0.\C,0,0.726954,1.230487,0.\C,0,0.714918,3.67967
 3,0.\H,0,1.253945,4.632034,0.\C,0,-0.714916,3.679672,0.\H,0,-1.253943,
 4.632034,0.\C,0,1.4138,2.488632,0.\H,0,2.509279,2.486396,0.\C,0,-1.413
 8,2.488633,0.\H,0,2.509279,-2.486402,0.\C,0,0.726956,-1.230488,0.\C,0,
 -1.411458,-0.000001,0.\H,0,-2.508008,-0.000003,0.\C,0,-0.726954,-1.230
 487,0.\C,0,-0.714918,-3.679673,0.\H,0,-1.253945,-4.632034,0.\C,0,0.714
 916,-3.679672,0.\H,0,1.253943,-4.632034,0.\C,0,-1.4138,-2.488632,0.\H,
 0,-2.509279,-2.486396,0.\C,0,1.4138,-2.488633,0.\H,0,-2.509279,2.48640
 2,0.\\Version=ES64L-G16RevC.01\State=1-AG\HF=-532.2823096\RMSD=2.120e-
 09\Dipole=0.,0.,0.\Quadrupole=2.8418911,2.96124,-5.8031311,0.0000019,0
 .,0.\PG=C02H [SGH(C14H10)]\\@


 NOT WHAT WE DID SHALL BE THE TEST
 WHEN ACT AND WILL ARE DONE,
 BUT WHAT OUR LORD INFERS WE WOULD-
 HAD WE DIVINER BEEN.
           EMILY DICKINSON  POEMS NO. CLXXV
 Job cpu time:       0 days  0 hours  0 minutes 46.5 seconds.
 Elapsed time:       0 days  0 hours  0 minutes  4.5 seconds.
 File lengths (MBytes):  RWF=    136 Int=      0 D2E=      0 Chk=     16 Scr=     16
 Normal termination of Gaussian 16 at Thu Dec 26 16:59:46 2024.
