 Entering Gaussian System, Link 0=g16
 Initial command:
 /cm/shared/uniol/sw/SYSTEM/gaussian/g16.c01/g16/l1.exe "/fs/dss/home/toxo0610/Perflouranthracen/03/Gau-1116246.inp" -scrdir="/fs/dss/home/toxo0610/Perflouranthracen/03/"
 Entering Link 1 = /cm/shared/uniol/sw/SYSTEM/gaussian/g16.c01/g16/l1.exe PID=   1116247.
  
 Copyright (c) 1988-2019, Gaussian, Inc.  All Rights Reserved.
  
 This is part of the Gaussian(R) 16 program.  It is based on
 the Gaussian(R) 09 system (copyright 2009, Gaussian, Inc.),
 the Gaussian(R) 03 system (copyright 2003, Gaussian, Inc.),
 the Gaussian(R) 98 system (copyright 1998, Gaussian, Inc.),
 the Gaussian(R) 94 system (copyright 1995, Gaussian, Inc.),
 the Gaussian 92(TM) system (copyright 1992, Gaussian, Inc.),
 the Gaussian 90(TM) system (copyright 1990, Gaussian, Inc.),
 the Gaussian 88(TM) system (copyright 1988, Gaussian, Inc.),
 the Gaussian 86(TM) system (copyright 1986, Carnegie Mellon
 University), and the Gaussian 82(TM) system (copyright 1983,
 Carnegie Mellon University). Gaussian is a federally registered
 trademark of Gaussian, Inc.
  
 This software contains proprietary and confidential information,
 including trade secrets, belonging to Gaussian, Inc.
  
 This software is provided under written license and may be
 used, copied, transmitted, or stored only in accord with that
 written license.
  
 The following legend is applicable only to US Government
 contracts under FAR:
  
                    RESTRICTED RIGHTS LEGEND
  
 Use, reproduction and disclosure by the US Government is
 subject to restrictions as set forth in subparagraphs (a)
 and (c) of the Commercial Computer Software - Restricted
 Rights clause in FAR 52.227-19.
  
 Gaussian, Inc.
 340 Quinnipiac St., Bldg. 40, Wallingford CT 06492
  
  
 ---------------------------------------------------------------
 Warning -- This program may not be used in any manner that
 competes with the business of Gaussian, Inc. or will provide
 assistance to any competitor of Gaussian, Inc.  The licensee
 of this program is prohibited from giving any competitor of
 Gaussian, Inc. access to this program.  By using this program,
 the user acknowledges that Gaussian, Inc. is engaged in the
 business of creating and licensing software in the field of
 computational chemistry and represents and warrants to the
 licensee that it is not a competitor of Gaussian, Inc. and that
 it will not use this program in any manner prohibited above.
 ---------------------------------------------------------------
  

 Cite this work as:
 Gaussian 16, Revision C.01,
 M. J. Frisch, G. W. Trucks, H. B. Schlegel, G. E. Scuseria, 
 M. A. Robb, J. R. Cheeseman, G. Scalmani, V. Barone, 
 G. A. Petersson, H. Nakatsuji, X. Li, M. Caricato, A. V. Marenich, 
 J. Bloino, B. G. Janesko, R. Gomperts, B. Mennucci, H. P. Hratchian, 
 J. V. Ortiz, A. F. Izmaylov, J. L. Sonnenberg, D. Williams-Young, 
 F. Ding, F. Lipparini, F. Egidi, J. Goings, B. Peng, A. Petrone, 
 T. Henderson, D. Ranasinghe, V. G. Zakrzewski, J. Gao, N. Rega, 
 G. Zheng, W. Liang, M. Hada, M. Ehara, K. Toyota, R. Fukuda, 
 J. Hasegawa, M. Ishida, T. Nakajima, Y. Honda, O. Kitao, H. Nakai, 
 T. Vreven, K. Throssell, J. A. Montgomery, Jr., J. E. Peralta, 
 F. Ogliaro, M. J. Bearpark, J. J. Heyd, E. N. Brothers, K. N. Kudin, 
 V. N. Staroverov, T. A. Keith, R. Kobayashi, J. Normand, 
 K. Raghavachari, A. P. Rendell, J. C. Burant, S. S. Iyengar, 
 J. Tomasi, M. Cossi, J. M. Millam, M. Klene, C. Adamo, R. Cammi, 
 J. W. Ochterski, R. L. Martin, K. Morokuma, O. Farkas, 
 J. B. Foresman, and D. J. Fox, Gaussian, Inc., Wallingford CT, 2019.
 
 ******************************************
 Gaussian 16:  ES64L-G16RevC.01  3-Jul-2019
                26-Dec-2024 
 ******************************************
 %NprocShared=16
 Will use up to   16 processors via shared memory.
 Default route: Test
 ---------------------------------------------------------------
 #p pbepbe/6-31+G** pop=regular scf=tight int=finegrid formcheck
 ---------------------------------------------------------------
 1/38=1,172=1/1;
 2/12=2,17=6,18=5,40=1/2;
 3/5=1,6=6,7=111,11=2,25=1,30=1,74=1009,75=-4/1,2,3;
 4//1;
 5/5=2,32=2,38=5/2;
 6/28=1/1;
 99/5=1,9=1/99;
 Leave Link    1 at Thu Dec 26 16:24:34 2024, MaxMem=           0 cpu:               1.9 elap:               0.3
 (Enter /cm/shared/uniol/sw/SYSTEM/gaussian/g16.c01/g16/l101.exe)
 --------------------
 orbitals calculation
 --------------------
 Symbolic Z-matrix:
 Charge =  0 Multiplicity = 1
 C                    -0.72891  -1.24099   0. 
 C                     1.39688   0.        0. 
 F                     2.74752   0.        0. 
 C                     0.72891  -1.24099   0. 
 C                     0.711    -3.69168   0. 
 F                     1.35586  -4.87012   0. 
 C                    -0.711    -3.69168   0. 
 F                    -1.35586  -4.87012   0. 
 C                     1.41058  -2.50102   0. 
 F                     2.75672  -2.56251   0. 
 C                    -1.41058  -2.50102   0. 
 F                     2.75672   2.56251   0. 
 C                     0.72891   1.24099   0. 
 C                    -1.39688   0.        0. 
 F                    -2.74752  0.         0. 
 C                    -0.72891   1.24099   0. 
 C                    -0.711     3.69168   0. 
 F                    -1.35586   4.87012   0. 
 C                     0.711     3.69168   0. 
 F                     1.35586   4.87012   0. 
 C                    -1.41058   2.50102   0. 
 F                    -2.75672   2.56251   0. 
 C                     1.41058   2.50102   0. 
 F                    -2.75672  -2.56251   0. 
 
 ITRead=  0  0  0  0  0  0  0  0  0  0  0  0  0  0  0  0  0  0  0  0
 ITRead=  0  0  0  0
 MicOpt= -1 -1 -1 -1 -1 -1 -1 -1 -1 -1 -1 -1 -1 -1 -1 -1 -1 -1 -1 -1
 MicOpt= -1 -1 -1 -1
 NAtoms=     24 NQM=       24 NQMF=       0 NMMI=      0 NMMIF=      0
                NMic=       0 NMicF=      0.
                    Isotopes and Nuclear Properties:
 (Nuclear quadrupole moments (NQMom) in fm**2, nuclear magnetic moments (NMagM)
  in nuclear magnetons)

  Atom         1           2           3           4           5           6           7           8           9          10
 IAtWgt=          12          12          19          12          12          19          12          19          12          19
 AtmWgt=  12.0000000  12.0000000  18.9984032  12.0000000  12.0000000  18.9984032  12.0000000  18.9984032  12.0000000  18.9984032
 NucSpn=           0           0           1           0           0           1           0           1           0           1
 AtZEff=  -0.0000000  -0.0000000  -0.0000000  -0.0000000  -0.0000000  -0.0000000  -0.0000000  -0.0000000  -0.0000000  -0.0000000
 NQMom=    0.0000000   0.0000000   0.0000000   0.0000000   0.0000000   0.0000000   0.0000000   0.0000000   0.0000000   0.0000000
 NMagM=    0.0000000   0.0000000   2.6288670   0.0000000   0.0000000   2.6288670   0.0000000   2.6288670   0.0000000   2.6288670
 AtZNuc=   6.0000000   6.0000000   9.0000000   6.0000000   6.0000000   9.0000000   6.0000000   9.0000000   6.0000000   9.0000000

  Atom        11          12          13          14          15          16          17          18          19          20
 IAtWgt=          12          19          12          12          19          12          12          19          12          19
 AtmWgt=  12.0000000  18.9984032  12.0000000  12.0000000  18.9984032  12.0000000  12.0000000  18.9984032  12.0000000  18.9984032
 NucSpn=           0           1           0           0           1           0           0           1           0           1
 AtZEff=  -0.0000000  -0.0000000  -0.0000000  -0.0000000  -0.0000000  -0.0000000  -0.0000000  -0.0000000  -0.0000000  -0.0000000
 NQMom=    0.0000000   0.0000000   0.0000000   0.0000000   0.0000000   0.0000000   0.0000000   0.0000000   0.0000000   0.0000000
 NMagM=    0.0000000   2.6288670   0.0000000   0.0000000   2.6288670   0.0000000   0.0000000   2.6288670   0.0000000   2.6288670
 AtZNuc=   6.0000000   9.0000000   6.0000000   6.0000000   9.0000000   6.0000000   6.0000000   9.0000000   6.0000000   9.0000000

  Atom        21          22          23          24
 IAtWgt=          12          19          12          19
 AtmWgt=  12.0000000  18.9984032  12.0000000  18.9984032
 NucSpn=           0           1           0           1
 AtZEff=  -0.0000000  -0.0000000  -0.0000000  -0.0000000
 NQMom=    0.0000000   0.0000000   0.0000000   0.0000000
 NMagM=    0.0000000   2.6288670   0.0000000   2.6288670
 AtZNuc=   6.0000000   9.0000000   6.0000000   9.0000000
 Leave Link  101 at Thu Dec 26 16:24:34 2024, MaxMem=   104857600 cpu:               0.9 elap:               0.2
 (Enter /cm/shared/uniol/sw/SYSTEM/gaussian/g16.c01/g16/l202.exe)
                          Input orientation:                          
 ---------------------------------------------------------------------
 Center     Atomic      Atomic             Coordinates (Angstroms)
 Number     Number       Type             X           Y           Z
 ---------------------------------------------------------------------
      1          6           0       -0.728910   -1.240989    0.000000
      2          6           0        1.396875    0.000000    0.000000
      3          9           0        2.747516    0.000001    0.000000
      4          6           0        0.728910   -1.240989    0.000000
      5          6           0        0.710999   -3.691678    0.000000
      6          9           0        1.355858   -4.870119    0.000000
      7          6           0       -0.710999   -3.691678    0.000000
      8          9           0       -1.355859   -4.870118    0.000000
      9          6           0        1.410584   -2.501018    0.000000
     10          9           0        2.756722   -2.562510    0.000000
     11          6           0       -1.410584   -2.501018    0.000000
     12          9           0        2.756722    2.562509    0.000000
     13          6           0        0.728910    1.240989    0.000000
     14          6           0       -1.396875    0.000000    0.000000
     15          9           0       -2.747516   -0.000001    0.000000
     16          6           0       -0.728910    1.240989    0.000000
     17          6           0       -0.710999    3.691678    0.000000
     18          9           0       -1.355858    4.870119    0.000000
     19          6           0        0.710999    3.691678    0.000000
     20          9           0        1.355859    4.870118    0.000000
     21          6           0       -1.410584    2.501018    0.000000
     22          9           0       -2.756722    2.562510    0.000000
     23          6           0        1.410584    2.501018    0.000000
     24          9           0       -2.756722   -2.562509    0.000000
 ---------------------------------------------------------------------
                    Distance matrix (angstroms):
                    1          2          3          4          5
     1  C    0.000000
     2  C    2.461507   0.000000
     3  F    3.691286   1.350641   0.000000
     4  C    1.457820   1.409337   2.369562   0.000000
     5  C    2.842396   3.754852   4.216147   2.450754   0.000000
     6  F    4.185313   4.870292   5.065055   3.682886   1.343341
     7  C    2.450754   4.251073   5.058638   2.842396   1.421998
     8  F    3.682885   5.594246   6.368339   4.185312   2.379206
     9  C    2.482963   2.501056   2.835927   1.432603   1.380974
    10  F    3.727740   2.900972   2.562528   2.420421   2.336665
    11  C    1.432603   3.759909   4.852308   2.482963   2.432855
    12  F    5.159092   2.900972   2.562525   4.310292   6.580261
    13  C    2.878446   1.409337   2.369561   2.481978   4.932700
    14  C    1.409337   2.793750   4.144391   2.461507   4.251073
    15  F    2.369561   4.144391   5.495032   3.691286   5.058637
    16  C    2.481978   2.461507   3.691286   2.878446   5.138535
    17  C    4.932700   4.251073   5.058637   5.138535   7.519044
    18  F    6.143184   5.594247   6.368338   6.456926   8.807739
    19  C    5.138535   3.754852   4.216145   4.932700   7.383356
    20  F    6.456926   4.870291   5.065052   6.143183   8.586047
    21  C    3.803590   3.759909   4.852307   4.310458   6.546037
    22  F    4.310293   4.880453   6.071498   5.159092   7.151221
    23  C    4.310458   2.501056   2.835925   3.803590   6.232087
    24  F    2.420421   4.880453   6.071498   3.727740   3.646932
                    6          7          8          9         10
     6  F    0.000000
     7  C    2.379206   0.000000
     8  F    2.711717   1.343341   0.000000
     9  C    2.369733   2.432855   3.642230   0.000000
    10  F    2.699533   3.646931   4.715758   1.347542   0.000000
    11  C    3.642230   1.380974   2.369732   2.821168   4.167760
    12  F    7.563490   7.151220   8.494543   5.239408   5.125019
    13  C    6.143184   5.138535   6.456926   3.803590   4.310293
    14  C    5.594247   3.754852   4.870291   3.759909   4.880453
    15  F    6.368338   4.216145   5.065052   4.852307   6.071498
    16  C    6.456926   4.932700   6.143183   4.310458   5.159092
    17  C    8.807739   7.383356   8.586047   6.546037   7.151221
    18  F   10.110670   8.586047   9.740237   7.873174   8.494545
    19  C    8.586047   7.519044   8.807738   6.232087   6.580262
    20  F    9.740237   8.807738  10.110668   7.371339   7.563490
    21  C    7.873174   6.232087   7.371339   5.742765   6.557877
    22  F    8.494545   6.580262   7.563490   6.557877   7.527542
    23  C    7.371340   6.546037   7.873173   5.002036   5.239409
    24  F    4.715758   2.336665   2.699533   4.167760   5.513444
                   11         12         13         14         15
    11  C    0.000000
    12  F    6.557877   0.000000
    13  C    4.310458   2.420421   0.000000
    14  C    2.501056   4.880453   2.461507   0.000000
    15  F    2.835925   6.071498   3.691286   1.350641   0.000000
    16  C    3.803590   3.727740   1.457820   1.409337   2.369562
    17  C    6.232087   3.646932   2.842396   3.754852   4.216147
    18  F    7.371340   4.715758   4.185313   4.870292   5.065055
    19  C    6.546037   2.336665   2.450754   4.251073   5.058638
    20  F    7.873173   2.699533   3.682885   5.594246   6.368339
    21  C    5.002036   4.167760   2.482963   2.501056   2.835927
    22  F    5.239409   5.513444   3.727740   2.900972   2.562528
    23  C    5.742765   1.347542   1.432603   3.759909   4.852308
    24  F    1.347542   7.527541   5.159092   2.900972   2.562525
                   16         17         18         19         20
    16  C    0.000000
    17  C    2.450754   0.000000
    18  F    3.682886   1.343341   0.000000
    19  C    2.842396   1.421998   2.379206   0.000000
    20  F    4.185312   2.379206   2.711717   1.343341   0.000000
    21  C    1.432603   1.380974   2.369733   2.432855   3.642230
    22  F    2.420421   2.336665   2.699533   3.646931   4.715758
    23  C    2.482963   2.432855   3.642230   1.380974   2.369732
    24  F    4.310292   6.580261   7.563490   7.151220   8.494543
                   21         22         23         24
    21  C    0.000000
    22  F    1.347542   0.000000
    23  C    2.821168   4.167760   0.000000
    24  F    5.239408   5.125019   6.557877   0.000000
 Stoichiometry    C14F10
 Framework group  C2H[SGH(C14F10)]
 Deg. of freedom    23
 Full point group                 C2H     NOp   4
 Largest Abelian subgroup         C2H     NOp   4
 Largest concise Abelian subgroup C2      NOp   2
                         Standard orientation:                         
 ---------------------------------------------------------------------
 Center     Atomic      Atomic             Coordinates (Angstroms)
 Number     Number       Type             X           Y           Z
 ---------------------------------------------------------------------
      1          6           0       -0.728910    1.240989    0.000000
      2          6           0        1.396875    0.000000   -0.000000
      3          9           0        2.747516   -0.000001   -0.000000
      4          6           0        0.728910    1.240989   -0.000000
      5          6           0        0.710999    3.691678   -0.000000
      6          9           0        1.355858    4.870119   -0.000000
      7          6           0       -0.710999    3.691678    0.000000
      8          9           0       -1.355859    4.870118    0.000000
      9          6           0        1.410584    2.501018   -0.000000
     10          9           0        2.756722    2.562510   -0.000000
     11          6           0       -1.410584    2.501018    0.000000
     12          9           0        2.756722   -2.562509   -0.000000
     13          6           0        0.728910   -1.240989    0.000000
     14          6           0       -1.396875    0.000000   -0.000000
     15          9           0       -2.747516    0.000001   -0.000000
     16          6           0       -0.728910   -1.240989   -0.000000
     17          6           0       -0.710999   -3.691678   -0.000000
     18          9           0       -1.355858   -4.870119   -0.000000
     19          6           0        0.710999   -3.691678    0.000000
     20          9           0        1.355859   -4.870118    0.000000
     21          6           0       -1.410584   -2.501018   -0.000000
     22          9           0       -2.756722   -2.562510   -0.000000
     23          6           0        1.410584   -2.501018    0.000000
     24          9           0       -2.756722    2.562509   -0.000000
 ---------------------------------------------------------------------
 Rotational constants (GHZ):           0.4225027           0.1517762           0.1116633
 Leave Link  202 at Thu Dec 26 16:24:35 2024, MaxMem=   104857600 cpu:               1.6 elap:               0.3
 (Enter /cm/shared/uniol/sw/SYSTEM/gaussian/g16.c01/g16/l301.exe)
 Standard basis: 6-31+G(d,p) (6D, 7F)
 Ernie: Thresh=  0.10000D-02 Tol=  0.10000D-05 Strict=F.
 There are   168 symmetry adapted cartesian basis functions of AG  symmetry.
 There are    60 symmetry adapted cartesian basis functions of BG  symmetry.
 There are    60 symmetry adapted cartesian basis functions of AU  symmetry.
 There are   168 symmetry adapted cartesian basis functions of BU  symmetry.
 There are   168 symmetry adapted basis functions of AG  symmetry.
 There are    60 symmetry adapted basis functions of BG  symmetry.
 There are    60 symmetry adapted basis functions of AU  symmetry.
 There are   168 symmetry adapted basis functions of BU  symmetry.
   456 basis functions,   768 primitive gaussians,   456 cartesian basis functions
    87 alpha electrons       87 beta electrons
       nuclear repulsion energy      2130.4249887025 Hartrees.
 IExCor= 1009 DFT=T Ex=PBE Corr=PBE ExCW=0 ScaHFX=  0.000000
 ScaDFX=  1.000000  1.000000  1.000000  1.000000 ScalE2=  1.000000  1.000000
 IRadAn=      4 IRanWt=     -1 IRanGd=            0 ICorTp=0 IEmpDi=  4
 NAtoms=   24 NActive=   24 NUniq=   12 SFac= 4.00D+00 NAtFMM=   60 NAOKFM=F Big=F
 Integral buffers will be    131072 words long.
 Raffenetti 2 integral format.
 Two-electron integral symmetry is turned on.
 Leave Link  301 at Thu Dec 26 16:24:37 2024, MaxMem=   104857600 cpu:               1.4 elap:               0.2
 (Enter /cm/shared/uniol/sw/SYSTEM/gaussian/g16.c01/g16/l302.exe)
 NPDir=0 NMtPBC=     1 NCelOv=     1 NCel=       1 NClECP=     1 NCelD=      1
         NCelK=      1 NCelE2=     1 NClLst=     1 CellRange=     0.0.
 One-electron integrals computed using PRISM.
 One-electron integral symmetry used in STVInt
 NBasis=   456 RedAO= T EigKep=  1.81D-06  NBF=   168    60    60   168
 NBsUse=   450 1.00D-06 EigRej=  6.34D-07 NBFU=   165    60    60   165
 Precomputing XC quadrature grid using
 IXCGrd= 4 IRadAn=           4 IRanWt=          -1 IRanGd=           0 AccXCQ= 0.00D+00.
 Generated NRdTot=       0 NPtTot=           0 NUsed=           0 NTot=          32
 NSgBfM=   450   450   450   450   450 MxSgAt=    24 MxSgA2=    24.
 Leave Link  302 at Thu Dec 26 16:24:40 2024, MaxMem=   104857600 cpu:              12.9 elap:               1.1
 (Enter /cm/shared/uniol/sw/SYSTEM/gaussian/g16.c01/g16/l303.exe)
 DipDrv:  MaxL=1.
 Leave Link  303 at Thu Dec 26 16:24:41 2024, MaxMem=   104857600 cpu:               0.9 elap:               0.2
 (Enter /cm/shared/uniol/sw/SYSTEM/gaussian/g16.c01/g16/l401.exe)
 ExpMin= 4.38D-02 ExpMax= 7.00D+03 ExpMxC= 1.05D+03 IAcc=2 IRadAn=         4 AccDes= 0.00D+00
 Harris functional with IExCor= 1009 and IRadAn=       4 diagonalized for initial guess.
 HarFok:  IExCor= 1009 AccDes= 0.00D+00 IRadAn=         4 IDoV= 1 UseB2=F ITyADJ=14
 ICtDFT=  3500011 ScaDFX=  1.000000  1.000000  1.000000  1.000000
 FoFCou: FMM=F IPFlag=           0 FMFlag=      100000 FMFlg1=           0
         NFxFlg=           0 DoJE=T BraDBF=F KetDBF=T FulRan=T
         wScrn=  0.000000 ICntrl=       500 IOpCl=  0 I1Cent=   200000004 NGrid=           0
         NMat0=    1 NMatS0=      1 NMatT0=    0 NMatD0=    1 NMtDS0=    0 NMtDT0=    0
 Petite list used in FoFCou.
 Harris En= -1530.34639608144    
 JPrj=0 DoOrth=F DoCkMO=F.
 Initial guess orbital symmetries:
       Occupied  (BU) (AG) (BU) (AG) (BU) (AG) (AG) (BU) (BU) (AG)
                 (AG) (BU) (BU) (AG) (BU) (AG) (AG) (BU) (BU) (AG)
                 (AG) (BU) (BU) (AG) (AG) (BU) (BU) (AG) (AG) (BU)
                 (BU) (AG) (AG) (BU) (AG) (BU) (AG) (BU) (BU) (AG)
                 (BU) (AG) (AG) (BU) (AG) (BU) (AG) (BU) (AG) (AG)
                 (BU) (BU) (AG) (BU) (BU) (AG) (BU) (BU) (AU) (BG)
                 (AG) (AG) (BG) (AU) (AU) (BG) (BG) (AU) (AU) (BG)
                 (AG) (BU) (BU) (AG) (AG) (BU) (BU) (AU) (AG) (BU)
                 (AG) (BG) (BG) (AU) (BG) (AU) (BG)
       Virtual   (AU) (AU) (BG) (AG) (BU) (AU) (BU) (BG) (AG) (AG)
                 (AG) (AU) (AG) (BU) (BU) (BU) (BU) (AU) (AG) (BG)
                 (BG) (AG) (BU) (BU) (AU) (AG) (AU) (BU) (AG) (BG)
                 (AG) (BU) (BG) (AG) (AU) (BG) (AG) (BU) (BU) (AG)
                 (BU) (AU) (BU) (AG) (AG) (BG) (AG) (BU) (AU) (AG)
                 (BG) (AG) (BU) (BU) (AG) (BU) (BU) (BU) (BG) (BU)
                 (AG) (AU) (AG) (BU) (BU) (AG) (AG) (AG) (AU) (BU)
                 (BG) (BU) (AG) (BU) (AG) (AG) (BG) (BU) (AG) (AG)
                 (AU) (BU) (AG) (BU) (AU) (BU) (BU) (AG) (AG) (BU)
                 (AG) (BG) (AG) (BU) (BG) (AU) (BU) (BU) (AG) (BU)
                 (AG) (BU) (AG) (AU) (AG) (AG) (BU) (BG) (BU) (AG)
                 (BU) (BU) (AG) (BU) (AG) (BU) (AG) (AG) (BU) (AG)
                 (BU) (BG) (AU) (BU) (AG) (AG) (AU) (BU) (AG) (BU)
                 (AU) (BG) (AU) (BG) (AU) (AG) (AG) (BG) (BG) (AU)
                 (BU) (BG) (BU) (AG) (AU) (AG) (BG) (BU) (AG) (BU)
                 (AG) (BU) (AG) (BU) (BU) (BG) (AU) (BU) (BG) (AG)
                 (BU) (BU) (AG) (BU) (BU) (AU) (AU) (AG) (BG) (BG)
                 (BU) (AU) (AG) (AU) (BG) (AG) (AG) (BG) (AG) (BU)
                 (BU) (AU) (AG) (BU) (AG) (BU) (AG) (AG) (AG) (AU)
                 (BG) (BG) (BU) (AU) (BU) (AU) (BG) (AG) (BG) (AU)
                 (AU) (AG) (BU) (BU) (BG) (AG) (BU) (AG) (AG) (BU)
                 (BG) (BU) (AU) (AU) (AG) (BU) (AG) (BU) (BU) (AG)
                 (BU) (AG) (AG) (BU) (BG) (AU) (BG) (BU) (AU) (BG)
                 (AG) (BU) (AU) (BG) (AG) (BG) (AG) (BU) (BU) (AU)
                 (AU) (AG) (AG) (BU) (BU) (BG) (BG) (AG) (AG) (AU)
                 (BU) (AG) (BU) (AG) (AU) (BU) (BU) (AG) (AG) (BU)
                 (AG) (BU) (BU) (BG) (AG) (BU) (AG) (BU) (AG) (BG)
                 (AU) (BU) (AG) (AG) (BU) (BU) (AU) (BG) (AG) (BG)
                 (BU) (AG) (AU) (AG) (AG) (BG) (AU) (BU) (BU) (BG)
                 (AG) (BU) (BU) (AG) (AU) (AG) (BG) (BU) (BU) (BU)
                 (AG) (AU) (BG) (AU) (AG) (AU) (BU) (AG) (BG) (BG)
                 (AG) (AU) (AG) (AG) (BU) (AG) (BU) (BU) (BU) (AG)
                 (AG) (BU) (BU) (AG) (BU) (BU) (BU) (AG) (AG) (BU)
                 (AG) (AG) (BU) (BU) (AG) (AG) (BU) (AG) (BU) (AG)
                 (BU) (AG) (BU) (BU) (AG) (BU) (AG) (AG) (BU) (AG)
                 (BU) (AG) (BU) (AG) (BU) (BU) (AG) (AG) (BU) (BU)
                 (AG) (AG) (BU)
 The electronic state of the initial guess is 1-AG.
 Leave Link  401 at Thu Dec 26 16:24:44 2024, MaxMem=   104857600 cpu:              11.8 elap:               1.0
 (Enter /cm/shared/uniol/sw/SYSTEM/gaussian/g16.c01/g16/l502.exe)
 Integral symmetry usage will be decided dynamically.
 Closed shell SCF:
 Using DIIS extrapolation, IDIIS=  1040.
 NGot=   104857600 LenX=   104426598 LenY=   104218206
 Requested convergence on RMS density matrix=1.00D-08 within 128 cycles.
 Requested convergence on MAX density matrix=1.00D-06.
 Requested convergence on             energy=1.00D-06.
 No special actions if energy rises.
 Fock matrices will be formed incrementally for  20 cycles.

 Cycle   1  Pass 1  IDiag  1:
 FoFJK:  IHMeth= 1 ICntrl=     500 DoSepK=F KAlg= 0 I1Cent=           0 FoldK=F
 IRaf= 810000000 NMat=       1 IRICut=       1 DoRegI=T DoRafI=F ISym2E= 1 IDoP0=0 IntGTp=1.
 FoFCou: FMM=F IPFlag=           0 FMFlag=      100000 FMFlg1=           0
         NFxFlg=           0 DoJE=T BraDBF=F KetDBF=F FulRan=T
         wScrn=  0.000000 ICntrl=       500 IOpCl=  0 I1Cent=           0 NGrid=           0
         NMat0=    1 NMatS0=      1 NMatT0=    0 NMatD0=    1 NMtDS0=    0 NMtDT0=    0
 Petite list used in FoFCou.
 E= -1530.26401899077    
 DIIS: error= 1.45D-02 at cycle   1 NSaved=   1.
 NSaved= 1 IEnMin= 1 EnMin= -1530.26401899077     IErMin= 1 ErrMin= 1.45D-02
 ErrMax= 1.45D-02  0.00D+00 EMaxC= 1.00D-01 BMatC= 1.19D-01 BMatP= 1.19D-01
 IDIUse=3 WtCom= 8.55D-01 WtEn= 1.45D-01
 Coeff-Com:  0.100D+01
 Coeff-En:   0.100D+01
 Coeff:      0.100D+01
 Gap=     0.077 Goal=   None    Shift=    0.000
 GapD=    0.077 DampG=0.500 DampE=0.500 DampFc=0.2500 IDamp=-1.
 Damping current iteration by 2.50D-01
 RMSDP=2.05D-02 MaxDP=1.04D+00              OVMax= 1.87D-01

 Cycle   2  Pass 1  IDiag  1:
 RMSU=  2.62D-03    CP:  9.27D-01
 E= -1530.29684690690     Delta-E=       -0.032827916129 Rises=F Damp=T
 DIIS: error= 7.08D-03 at cycle   2 NSaved=   2.
 NSaved= 2 IEnMin= 2 EnMin= -1530.29684690690     IErMin= 2 ErrMin= 7.08D-03
 ErrMax= 7.08D-03  0.00D+00 EMaxC= 1.00D-01 BMatC= 3.24D-02 BMatP= 1.19D-01
 IDIUse=3 WtCom= 9.29D-01 WtEn= 7.08D-02
 Coeff-Com: -0.660D+00 0.166D+01
 Coeff-En:   0.000D+00 0.100D+01
 Coeff:     -0.613D+00 0.161D+01
 Gap=     0.080 Goal=   None    Shift=    0.000
 RMSDP=1.07D-02 MaxDP=6.16D-01 DE=-3.28D-02 OVMax= 2.05D-01

 Cycle   3  Pass 1  IDiag  1:
 RMSU=  3.53D-03    CP:  7.65D-01  1.92D+00
 E= -1530.32880393544     Delta-E=       -0.031957028540 Rises=F Damp=F
 DIIS: error= 1.13D-02 at cycle   3 NSaved=   3.
 NSaved= 3 IEnMin= 3 EnMin= -1530.32880393544     IErMin= 2 ErrMin= 7.08D-03
 ErrMax= 1.13D-02  0.00D+00 EMaxC= 1.00D-01 BMatC= 2.85D-02 BMatP= 3.24D-02
 IDIUse=3 WtCom= 8.87D-01 WtEn= 1.13D-01
 Coeff-Com: -0.555D+00 0.110D+01 0.458D+00
 Coeff-En:   0.000D+00 0.000D+00 0.100D+01
 Coeff:     -0.492D+00 0.973D+00 0.519D+00
 Gap=     0.077 Goal=   None    Shift=    0.000
 RMSDP=2.40D-03 MaxDP=8.68D-02 DE=-3.20D-02 OVMax= 1.13D-01

 Cycle   4  Pass 1  IDiag  1:
 RMSU=  1.68D-03    CP:  7.75D-01  2.02D+00  5.46D-01
 E= -1530.34549857654     Delta-E=       -0.016694641104 Rises=F Damp=F
 DIIS: error= 6.54D-03 at cycle   4 NSaved=   4.
 NSaved= 4 IEnMin= 4 EnMin= -1530.34549857654     IErMin= 4 ErrMin= 6.54D-03
 ErrMax= 6.54D-03  0.00D+00 EMaxC= 1.00D-01 BMatC= 1.48D-02 BMatP= 2.85D-02
 IDIUse=3 WtCom= 9.35D-01 WtEn= 6.54D-02
 Coeff-Com: -0.273D+00 0.503D+00 0.404D+00 0.367D+00
 Coeff-En:   0.000D+00 0.000D+00 0.371D+00 0.629D+00
 Coeff:     -0.255D+00 0.470D+00 0.401D+00 0.384D+00
 Gap=     0.076 Goal=   None    Shift=    0.000
 RMSDP=1.32D-03 MaxDP=5.26D-02 DE=-1.67D-02 OVMax= 4.64D-02

 Cycle   5  Pass 1  IDiag  1:
 RMSU=  5.67D-04    CP:  7.83D-01  1.80D+00  7.45D-01  6.56D-01
 E= -1530.36086708239     Delta-E=       -0.015368505844 Rises=F Damp=F
 DIIS: error= 9.41D-04 at cycle   5 NSaved=   5.
 NSaved= 5 IEnMin= 5 EnMin= -1530.36086708239     IErMin= 5 ErrMin= 9.41D-04
 ErrMax= 9.41D-04  0.00D+00 EMaxC= 1.00D-01 BMatC= 4.11D-04 BMatP= 1.48D-02
 IDIUse=3 WtCom= 9.91D-01 WtEn= 9.41D-03
 Coeff-Com: -0.582D-01 0.108D+00 0.157D+00 0.216D+00 0.577D+00
 Coeff-En:   0.000D+00 0.000D+00 0.000D+00 0.000D+00 0.100D+01
 Coeff:     -0.576D-01 0.107D+00 0.155D+00 0.214D+00 0.581D+00
 Gap=     0.075 Goal=   None    Shift=    0.000
 RMSDP=3.79D-04 MaxDP=2.07D-02 DE=-1.54D-02 OVMax= 8.75D-03

 Cycle   6  Pass 1  IDiag  1:
 RMSU=  1.10D-04    CP:  7.78D-01  1.85D+00  7.36D-01  6.57D-01  6.86D-01
 E= -1530.36123990780     Delta-E=       -0.000372825414 Rises=F Damp=F
 DIIS: error= 3.60D-04 at cycle   6 NSaved=   6.
 NSaved= 6 IEnMin= 6 EnMin= -1530.36123990780     IErMin= 6 ErrMin= 3.60D-04
 ErrMax= 3.60D-04  0.00D+00 EMaxC= 1.00D-01 BMatC= 4.52D-05 BMatP= 4.11D-04
 IDIUse=3 WtCom= 9.96D-01 WtEn= 3.60D-03
 Coeff-Com: -0.162D-01 0.308D-01 0.694D-01 0.105D+00 0.364D+00 0.447D+00
 Coeff-En:   0.000D+00 0.000D+00 0.000D+00 0.000D+00 0.422D-01 0.958D+00
 Coeff:     -0.162D-01 0.307D-01 0.691D-01 0.105D+00 0.363D+00 0.449D+00
 Gap=     0.075 Goal=   None    Shift=    0.000
 RMSDP=6.25D-05 MaxDP=2.65D-03 DE=-3.73D-04 OVMax= 2.33D-03

 Cycle   7  Pass 1  IDiag  1:
 RMSU=  3.58D-05    CP:  7.79D-01  1.84D+00  7.41D-01  6.45D-01  7.03D-01
                    CP:  7.22D-01
 E= -1530.36127362659     Delta-E=       -0.000033718788 Rises=F Damp=F
 DIIS: error= 1.17D-04 at cycle   7 NSaved=   7.
 NSaved= 7 IEnMin= 7 EnMin= -1530.36127362659     IErMin= 7 ErrMin= 1.17D-04
 ErrMax= 1.17D-04  0.00D+00 EMaxC= 1.00D-01 BMatC= 4.93D-06 BMatP= 4.52D-05
 IDIUse=3 WtCom= 9.99D-01 WtEn= 1.17D-03
 Coeff-Com: -0.142D-02 0.277D-02 0.187D-01 0.300D-01 0.137D+00 0.283D+00
 Coeff-Com:  0.530D+00
 Coeff-En:   0.000D+00 0.000D+00 0.000D+00 0.000D+00 0.000D+00 0.511D-01
 Coeff-En:   0.949D+00
 Coeff:     -0.142D-02 0.277D-02 0.186D-01 0.299D-01 0.137D+00 0.283D+00
 Coeff:      0.530D+00
 Gap=     0.075 Goal=   None    Shift=    0.000
 RMSDP=2.62D-05 MaxDP=1.24D-03 DE=-3.37D-05 OVMax= 3.17D-04

 Cycle   8  Pass 1  IDiag  1:
 RMSU=  9.37D-06    CP:  7.79D-01  1.84D+00  7.39D-01  6.50D-01  7.07D-01
                    CP:  6.39D-01  5.72D-01
 E= -1530.36127707932     Delta-E=       -0.000003452729 Rises=F Damp=F
 DIIS: error= 1.37D-05 at cycle   8 NSaved=   8.
 NSaved= 8 IEnMin= 8 EnMin= -1530.36127707932     IErMin= 8 ErrMin= 1.37D-05
 ErrMax= 1.37D-05  0.00D+00 EMaxC= 1.00D-01 BMatC= 1.01D-07 BMatP= 4.93D-06
 IDIUse=1 WtCom= 1.00D+00 WtEn= 0.00D+00
 Coeff-Com: -0.224D-03 0.452D-03 0.649D-02 0.107D-01 0.524D-01 0.115D+00
 Coeff-Com:  0.246D+00 0.569D+00
 Coeff:     -0.224D-03 0.452D-03 0.649D-02 0.107D-01 0.524D-01 0.115D+00
 Coeff:      0.246D+00 0.569D+00
 Gap=     0.075 Goal=   None    Shift=    0.000
 RMSDP=6.24D-06 MaxDP=3.01D-04 DE=-3.45D-06 OVMax= 9.10D-05

 Cycle   9  Pass 1  IDiag  1:
 RMSU=  2.57D-06    CP:  7.79D-01  1.84D+00  7.39D-01  6.50D-01  7.07D-01
                    CP:  6.47D-01  6.15D-01  6.38D-01
 E= -1530.36127713054     Delta-E=       -0.000000051218 Rises=F Damp=F
 DIIS: error= 1.27D-05 at cycle   9 NSaved=   9.
 NSaved= 9 IEnMin= 9 EnMin= -1530.36127713054     IErMin= 9 ErrMin= 1.27D-05
 ErrMax= 1.27D-05  0.00D+00 EMaxC= 1.00D-01 BMatC= 5.71D-08 BMatP= 1.01D-07
 IDIUse=1 WtCom= 1.00D+00 WtEn= 0.00D+00
 Coeff-Com: -0.959D-04 0.151D-03 0.103D-02 0.157D-02 0.976D-02 0.280D-01
 Coeff-Com:  0.781D-01 0.421D+00 0.460D+00
 Coeff:     -0.959D-04 0.151D-03 0.103D-02 0.157D-02 0.976D-02 0.280D-01
 Coeff:      0.781D-01 0.421D+00 0.460D+00
 Gap=     0.075 Goal=   None    Shift=    0.000
 RMSDP=1.29D-06 MaxDP=3.68D-05 DE=-5.12D-08 OVMax= 3.73D-05

 Cycle  10  Pass 1  IDiag  1:
 RMSU=  6.70D-07    CP:  7.79D-01  1.84D+00  7.39D-01  6.50D-01  7.07D-01
                    CP:  6.46D-01  6.05D-01  6.71D-01  7.04D-01
 E= -1530.36127717323     Delta-E=       -0.000000042691 Rises=F Damp=F
 DIIS: error= 2.14D-06 at cycle  10 NSaved=  10.
 NSaved=10 IEnMin=10 EnMin= -1530.36127717323     IErMin=10 ErrMin= 2.14D-06
 ErrMax= 2.14D-06  0.00D+00 EMaxC= 1.00D-01 BMatC= 1.81D-09 BMatP= 5.71D-08
 IDIUse=1 WtCom= 1.00D+00 WtEn= 0.00D+00
 Coeff-Com: -0.203D-04 0.154D-04 0.227D-03 0.359D-03 0.285D-02 0.954D-02
 Coeff-Com:  0.293D-01 0.195D+00 0.255D+00 0.508D+00
 Coeff:     -0.203D-04 0.154D-04 0.227D-03 0.359D-03 0.285D-02 0.954D-02
 Coeff:      0.293D-01 0.195D+00 0.255D+00 0.508D+00
 Gap=     0.075 Goal=   None    Shift=    0.000
 DSYEVD-2 returned Info=       13943 IAlg= 4 N=   165 NDim=   450 NE2=      231595 trying  DSYEV.
 RMSDP=6.88D-07 MaxDP=2.67D-05 DE=-4.27D-08 OVMax= 1.03D-05

 Cycle  11  Pass 1  IDiag  1:
 RMSU=  2.93D-07    CP:  7.79D-01  1.84D+00  7.39D-01  6.50D-01  7.07D-01
                    CP:  6.49D-01  6.07D-01  7.00D-01  6.31D-01  8.54D-01
 E= -1530.36127717436     Delta-E=       -0.000000001130 Rises=F Damp=F
 DIIS: error= 9.35D-07 at cycle  11 NSaved=  11.
 NSaved=11 IEnMin=11 EnMin= -1530.36127717436     IErMin=11 ErrMin= 9.35D-07
 ErrMax= 9.35D-07  0.00D+00 EMaxC= 1.00D-01 BMatC= 3.58D-10 BMatP= 1.81D-09
 IDIUse=1 WtCom= 1.00D+00 WtEn= 0.00D+00
 Coeff-Com: -0.425D-05-0.619D-05 0.168D-04 0.348D-04 0.675D-03 0.309D-02
 Coeff-Com:  0.107D-01 0.816D-01 0.119D+00 0.342D+00 0.442D+00
 Coeff:     -0.425D-05-0.619D-05 0.168D-04 0.348D-04 0.675D-03 0.309D-02
 Coeff:      0.107D-01 0.816D-01 0.119D+00 0.342D+00 0.442D+00
 Gap=     0.075 Goal=   None    Shift=    0.000
 RMSDP=4.69D-07 MaxDP=2.99D-05 DE=-1.13D-09 OVMax= 4.01D-06

 Cycle  12  Pass 1  IDiag  1:
 RMSU=  6.82D-08    CP:  7.79D-01  1.84D+00  7.39D-01  6.50D-01  7.07D-01
                    CP:  6.48D-01  6.06D-01  6.99D-01  6.48D-01  7.03D-01
                    CP:  4.14D-01
 E= -1530.36127717472     Delta-E=       -0.000000000365 Rises=F Damp=F
 DIIS: error= 1.15D-07 at cycle  12 NSaved=  12.
 NSaved=12 IEnMin=12 EnMin= -1530.36127717472     IErMin=12 ErrMin= 1.15D-07
 ErrMax= 1.15D-07  0.00D+00 EMaxC= 1.00D-01 BMatC= 3.45D-12 BMatP= 3.58D-10
 IDIUse=1 WtCom= 1.00D+00 WtEn= 0.00D+00
 Coeff-Com: -0.178D-05-0.345D-06-0.134D-05 0.275D-05 0.122D-03 0.658D-03
 Coeff-Com:  0.247D-02 0.190D-01 0.314D-01 0.899D-01 0.156D+00 0.700D+00
 Coeff:     -0.178D-05-0.345D-06-0.134D-05 0.275D-05 0.122D-03 0.658D-03
 Coeff:      0.247D-02 0.190D-01 0.314D-01 0.899D-01 0.156D+00 0.700D+00
 Gap=     0.075 Goal=   None    Shift=    0.000
 RMSDP=3.09D-08 MaxDP=1.32D-06 DE=-3.65D-10 OVMax= 5.93D-07

 Cycle  13  Pass 1  IDiag  1:
 RMSU=  1.31D-08    CP:  7.79D-01  1.84D+00  7.39D-01  6.50D-01  7.07D-01
                    CP:  6.48D-01  6.07D-01  6.98D-01  6.50D-01  7.16D-01
                    CP:  4.39D-01  8.65D-01
 E= -1530.36127717472     Delta-E=       -0.000000000004 Rises=F Damp=F
 DIIS: error= 5.61D-08 at cycle  13 NSaved=  13.
 NSaved=13 IEnMin=13 EnMin= -1530.36127717472     IErMin=13 ErrMin= 5.61D-08
 ErrMax= 5.61D-08  0.00D+00 EMaxC= 1.00D-01 BMatC= 9.09D-13 BMatP= 3.45D-12
 IDIUse=1 WtCom= 1.00D+00 WtEn= 0.00D+00
 Coeff-Com: -0.959D-06 0.180D-06-0.190D-05-0.559D-06 0.416D-04 0.259D-03
 Coeff-Com:  0.104D-02 0.793D-02 0.142D-01 0.403D-01 0.799D-01 0.468D+00
 Coeff-Com:  0.388D+00
 Coeff:     -0.959D-06 0.180D-06-0.190D-05-0.559D-06 0.416D-04 0.259D-03
 Coeff:      0.104D-02 0.793D-02 0.142D-01 0.403D-01 0.799D-01 0.468D+00
 Coeff:      0.388D+00
 Gap=     0.075 Goal=   None    Shift=    0.000
 RMSDP=8.80D-09 MaxDP=2.48D-07 DE=-4.09D-12 OVMax= 1.75D-07

 SCF Done:  E(RPBE-PBE) =  -1530.36127717     A.U. after   13 cycles
            NFock= 13  Conv=0.88D-08     -V/T= 2.0081
 KE= 1.518048721387D+03 PE=-7.868961514744D+03 EE= 2.690126527480D+03
 Leave Link  502 at Thu Dec 26 16:24:52 2024, MaxMem=   104857600 cpu:              96.2 elap:               6.3
 (Enter /cm/shared/uniol/sw/SYSTEM/gaussian/g16.c01/g16/l601.exe)
 Copying SCF densities to generalized density rwf, IOpCl= 0 IROHF=0.

 **********************************************************************

            Population analysis using the SCF Density.

 **********************************************************************

 Orbital symmetries:
       Occupied  (BU) (AG) (BU) (AG) (BU) (AG) (AG) (BU) (BU) (AG)
                 (BU) (AG) (AG) (BU) (BU) (AG) (BU) (AG) (AG) (BU)
                 (BU) (AG) (BU) (AG) (AG) (BU) (BU) (AG) (AG) (BU)
                 (BU) (AG) (AG) (BU) (AG) (BU) (AG) (BU) (BU) (AG)
                 (BU) (AG) (AG) (BU) (AG) (BU) (BU) (AG) (AG) (AG)
                 (BU) (BU) (AG) (BU) (AG) (BU) (BU) (AU) (BG) (BU)
                 (BG) (AG) (AU) (AU) (AG) (BG) (BG) (AU) (AU) (BG)
                 (AG) (BU) (AG) (BU) (AG) (BU) (BU) (AU) (AG) (BU)
                 (BG) (AG) (AU) (BG) (BG) (AU) (BG)
       Virtual   (AU) (AU) (BG) (AG) (BU) (AU) (BU) (BG) (AG) (AG)
                 (AU) (AG) (BU) (AG) (BU) (BU) (BG) (AG) (BU) (BG)
                 (BU) (AU) (AG) (AU) (AU) (BU) (BU) (AG) (AG) (AG)
                 (BG) (AU) (BG) (AG) (BU) (BG) (BU) (BU) (AG) (AU)
                 (AG) (BU) (BU) (BG) (AG) (AU) (AG) (BG) (AG) (BU)
                 (AG) (BU) (AG) (AG) (BU) (BU) (BG) (AG) (BU) (AU)
                 (BU) (AG) (BU) (BU) (AG) (AG) (AG) (BU) (AU) (BU)
                 (BG) (BU) (AG) (BU) (AG) (BG) (BU) (AG) (AG) (AU)
                 (BU) (AU) (AG) (BU) (BU) (BU) (AG) (AG) (AG) (BG)
                 (AG) (BU) (BG) (BU) (AU) (AG) (BU) (BU) (AG) (AU)
                 (AG) (BU) (BU) (AG) (AG) (BG) (AG) (BU) (BU) (AG)
                 (BU) (AG) (BU) (BU) (AG) (BU) (AG) (AG) (BG) (AG)
                 (BU) (BU) (AU) (BU) (AU) (AG) (BU) (AG) (AG) (AU)
                 (BU) (AU) (BG) (BG) (AU) (AG) (BG) (AG) (BG) (AU)
                 (BG) (BU) (BU) (AU) (AG) (AG) (BG) (BU) (AG) (BU)
                 (AG) (BU) (AG) (BU) (BU) (AU) (BG) (AG) (BU) (BG)
                 (BU) (BU) (AG) (BU) (BU) (AU) (BG) (AG) (AU) (BG)
                 (BU) (AU) (AU) (AG) (BG) (AG) (AG) (AG) (BG) (BU)
                 (BU) (AU) (AG) (BU) (AG) (BU) (AG) (AG) (AG) (AU)
                 (BG) (BG) (BU) (AU) (BU) (BG) (AG) (BG) (AU) (AU)
                 (AU) (AG) (BG) (BU) (AG) (BU) (BU) (AG) (BG) (AG)
                 (BU) (BU) (AU) (AU) (AG) (BU) (AG) (BU) (BU) (AG)
                 (BU) (AG) (AG) (BU) (BG) (AU) (BG) (BU) (AU) (AG)
                 (BG) (AU) (BU) (AG) (BG) (BG) (AG) (BU) (BU) (AG)
                 (AU) (AU) (AG) (BU) (BU) (BG) (BG) (AG) (AG) (BU)
                 (AU) (AG) (BU) (AG) (AU) (BU) (BU) (AG) (AG) (BU)
                 (BU) (AG) (BU) (AG) (BG) (BU) (BU) (AG) (AG) (BG)
                 (AU) (BU) (AG) (BU) (AG) (BU) (AU) (BG) (AG) (BG)
                 (BU) (AG) (AU) (AG) (AG) (BG) (AU) (BU) (BU) (BG)
                 (AG) (BU) (BU) (AG) (AU) (AG) (BG) (BU) (BU) (BU)
                 (AU) (AG) (BG) (AU) (AU) (AG) (BU) (BG) (AG) (BG)
                 (AU) (AG) (AG) (AG) (BU) (AG) (BU) (BU) (BU) (AG)
                 (BU) (AG) (BU) (AG) (BU) (BU) (BU) (AG) (AG) (BU)
                 (AG) (AG) (BU) (BU) (AG) (AG) (BU) (AG) (BU) (AG)
                 (AG) (BU) (BU) (BU) (AG) (BU) (AG) (AG) (BU) (AG)
                 (BU) (AG) (BU) (AG) (BU) (BU) (AG) (AG) (BU) (BU)
                 (AG) (AG) (BU)
 The electronic state is 1-AG.
 Alpha  occ. eigenvalues --  -24.34946 -24.34946 -24.34945 -24.34945 -24.34193
 Alpha  occ. eigenvalues --  -24.34193 -24.34193 -24.34193 -24.33713 -24.33712
 Alpha  occ. eigenvalues --  -10.04317 -10.04317 -10.04288 -10.04288 -10.04281
 Alpha  occ. eigenvalues --  -10.04281 -10.04186 -10.04186 -10.04186 -10.04186
 Alpha  occ. eigenvalues --   -9.98859  -9.98858  -9.98837  -9.98836  -1.18650
 Alpha  occ. eigenvalues --   -1.18623  -1.17857  -1.17706  -1.17253  -1.16867
 Alpha  occ. eigenvalues --   -1.16738  -1.16370  -1.16144  -1.16024  -0.86836
 Alpha  occ. eigenvalues --   -0.84312  -0.79526  -0.76135  -0.74171  -0.73944
 Alpha  occ. eigenvalues --   -0.69911  -0.65678  -0.64852  -0.61853  -0.60310
 Alpha  occ. eigenvalues --   -0.58475  -0.56647  -0.56339  -0.54878  -0.54515
 Alpha  occ. eigenvalues --   -0.53512  -0.53011  -0.51509  -0.51244  -0.50963
 Alpha  occ. eigenvalues --   -0.49592  -0.49412  -0.48811  -0.48250  -0.47435
 Alpha  occ. eigenvalues --   -0.45912  -0.45755  -0.45695  -0.45279  -0.44239
 Alpha  occ. eigenvalues --   -0.43802  -0.43446  -0.42679  -0.42366  -0.42148
 Alpha  occ. eigenvalues --   -0.40728  -0.39689  -0.39410  -0.39014  -0.38643
 Alpha  occ. eigenvalues --   -0.37605  -0.37244  -0.37014  -0.35820  -0.34630
 Alpha  occ. eigenvalues --   -0.34360  -0.33512  -0.29306  -0.29024  -0.26536
 Alpha  occ. eigenvalues --   -0.25952  -0.21014
 Alpha virt. eigenvalues --   -0.13473  -0.10028  -0.07164  -0.06861  -0.06188
 Alpha virt. eigenvalues --   -0.03004  -0.02873  -0.02189  -0.01536  -0.00052
 Alpha virt. eigenvalues --    0.01740   0.02039   0.02950   0.02987   0.03702
 Alpha virt. eigenvalues --    0.03738   0.03938   0.04193   0.04756   0.04788
 Alpha virt. eigenvalues --    0.05842   0.05973   0.06063   0.06976   0.07775
 Alpha virt. eigenvalues --    0.07829   0.07861   0.08284   0.08569   0.09686
 Alpha virt. eigenvalues --    0.10424   0.10840   0.10938   0.10974   0.11045
 Alpha virt. eigenvalues --    0.11982   0.12318   0.13610   0.13886   0.14124
 Alpha virt. eigenvalues --    0.14240   0.14264   0.14290   0.14980   0.15883
 Alpha virt. eigenvalues --    0.15958   0.16167   0.16910   0.16960   0.17109
 Alpha virt. eigenvalues --    0.18932   0.19181   0.19476   0.20392   0.20651
 Alpha virt. eigenvalues --    0.20701   0.20801   0.21162   0.21622   0.22083
 Alpha virt. eigenvalues --    0.22493   0.24492   0.24522   0.25318   0.25783
 Alpha virt. eigenvalues --    0.26108   0.26878   0.26969   0.27147   0.27228
 Alpha virt. eigenvalues --    0.27561   0.28733   0.29058   0.29123   0.29365
 Alpha virt. eigenvalues --    0.29650   0.29986   0.30230   0.30441   0.30517
 Alpha virt. eigenvalues --    0.31447   0.31618   0.31693   0.31938   0.31987
 Alpha virt. eigenvalues --    0.33076   0.33142   0.34207   0.35539   0.35678
 Alpha virt. eigenvalues --    0.35774   0.36054   0.36721   0.36941   0.37109
 Alpha virt. eigenvalues --    0.38074   0.38300   0.38496   0.38919   0.40005
 Alpha virt. eigenvalues --    0.40138   0.40879   0.41355   0.41510   0.42697
 Alpha virt. eigenvalues --    0.42757   0.43085   0.43215   0.44750   0.48126
 Alpha virt. eigenvalues --    0.49213   0.49769   0.49772   0.50205   0.50660
 Alpha virt. eigenvalues --    0.51621   0.53267   0.54700   0.56714   0.57121
 Alpha virt. eigenvalues --    0.57153   0.57991   0.58402   0.58841   0.60545
 Alpha virt. eigenvalues --    0.61180   0.61471   0.61790   0.62395   0.64769
 Alpha virt. eigenvalues --    0.65865   0.66461   0.67029   0.67802   0.69533
 Alpha virt. eigenvalues --    0.70865   0.70935   0.71863   0.72018   0.73099
 Alpha virt. eigenvalues --    0.75594   0.76820   0.78277   0.84154   0.84275
 Alpha virt. eigenvalues --    0.87902   0.90059   0.92071   0.94704   0.97783
 Alpha virt. eigenvalues --    0.99618   1.00138   1.00526   1.02195   1.05186
 Alpha virt. eigenvalues --    1.07806   1.07922   1.09199   1.09693   1.09917
 Alpha virt. eigenvalues --    1.10261   1.10392   1.12291   1.12431   1.12631
 Alpha virt. eigenvalues --    1.16826   1.17408   1.17769   1.18558   1.18860
 Alpha virt. eigenvalues --    1.20230   1.20491   1.21072   1.21188   1.21334
 Alpha virt. eigenvalues --    1.22097   1.22356   1.22865   1.22928   1.24069
 Alpha virt. eigenvalues --    1.25082   1.26361   1.27191   1.35203   1.36325
 Alpha virt. eigenvalues --    1.36711   1.41718   1.46817   1.47784   1.49787
 Alpha virt. eigenvalues --    1.50393   1.52385   1.52698   1.52945   1.53876
 Alpha virt. eigenvalues --    1.54945   1.55104   1.55143   1.55281   1.55696
 Alpha virt. eigenvalues --    1.56417   1.56884   1.57519   1.57894   1.58636
 Alpha virt. eigenvalues --    1.59114   1.59862   1.60372   1.60864   1.60958
 Alpha virt. eigenvalues --    1.61285   1.61590   1.62022   1.63866   1.64451
 Alpha virt. eigenvalues --    1.64597   1.64862   1.65678   1.65890   1.65916
 Alpha virt. eigenvalues --    1.65947   1.67013   1.67280   1.67438   1.67799
 Alpha virt. eigenvalues --    1.68209   1.68274   1.68910   1.69571   1.69998
 Alpha virt. eigenvalues --    1.70320   1.70563   1.71459   1.72031   1.72355
 Alpha virt. eigenvalues --    1.72594   1.72939   1.73608   1.73993   1.74084
 Alpha virt. eigenvalues --    1.74607   1.74751   1.75856   1.75925   1.76057
 Alpha virt. eigenvalues --    1.77843   1.78305   1.79099   1.79906   1.80060
 Alpha virt. eigenvalues --    1.80068   1.81165   1.81287   1.83090   1.84986
 Alpha virt. eigenvalues --    1.85545   1.88962   1.89563   1.89805   1.90982
 Alpha virt. eigenvalues --    1.94248   1.94326   1.98727   1.99464   1.99562
 Alpha virt. eigenvalues --    2.03434   2.04563   2.04906   2.04915   2.07793
 Alpha virt. eigenvalues --    2.07807   2.08179   2.08197   2.09868   2.10036
 Alpha virt. eigenvalues --    2.11991   2.13650   2.13653   2.14853   2.16216
 Alpha virt. eigenvalues --    2.16905   2.19488   2.20477   2.21657   2.21657
 Alpha virt. eigenvalues --    2.22980   2.23411   2.23413   2.24878   2.25886
 Alpha virt. eigenvalues --    2.27540   2.28392   2.29628   2.33223   2.35547
 Alpha virt. eigenvalues --    2.35932   2.36113   2.39072   2.41095   2.41667
 Alpha virt. eigenvalues --    2.42796   2.42883   2.43229   2.45911   2.48036
 Alpha virt. eigenvalues --    2.48968   2.51167   2.54288   2.54709   2.60163
 Alpha virt. eigenvalues --    2.61414   2.61975   2.67424   2.67855   2.68097
 Alpha virt. eigenvalues --    2.75974   2.78803   2.81954   2.90319   2.90878
 Alpha virt. eigenvalues --    2.91736   2.92622   2.96714   3.00163   3.04125
 Alpha virt. eigenvalues --    3.05200   3.07068   3.08147   3.08231   3.14998
 Alpha virt. eigenvalues --    3.16525   3.20323   3.21780   3.24246   3.26598
 Alpha virt. eigenvalues --    3.30597   3.33989   3.46218   3.50418   4.11538
 Alpha virt. eigenvalues --    4.14851   4.16343   4.21209   4.23032   4.24713
 Alpha virt. eigenvalues --    4.24719   4.34142   4.35122   4.38863   4.45405
 Alpha virt. eigenvalues --    4.49412   4.70985   4.84772   5.25108   5.33185
 Alpha virt. eigenvalues --    5.83707   5.96602   6.06408   6.50868   6.80268
 Alpha virt. eigenvalues --    6.97665   7.67483   8.10598
     Molecular Orbital Coefficients:
                          83        84        85        86        87
                        (AU)--O   (BG)--O   (BG)--O   (AU)--O   (BG)--O
     Eigenvalues --    -0.29306  -0.29024  -0.26536  -0.25952  -0.21014
   1 1   C  1S          0.00000   0.00000   0.00000   0.00000   0.00000
   2        2S          0.00000   0.00000   0.00000   0.00000   0.00000
   3        2PX         0.00000   0.00000   0.00000   0.00000   0.00000
   4        2PY         0.00000   0.00000   0.00000   0.00000   0.00000
   5        2PZ        -0.07496  -0.17403  -0.19518  -0.14095  -0.06144
   6        3S          0.00000   0.00000   0.00000   0.00000   0.00000
   7        3PX         0.00000   0.00000   0.00000   0.00000   0.00000
   8        3PY         0.00000   0.00000   0.00000   0.00000   0.00000
   9        3PZ        -0.04435  -0.11831  -0.12721  -0.10266  -0.05084
  10        4S          0.00000   0.00000   0.00000   0.00000   0.00000
  11        4PX         0.00000   0.00000   0.00000   0.00000   0.00000
  12        4PY         0.00000   0.00000   0.00000   0.00000   0.00000
  13        4PZ         0.00739  -0.11672  -0.02570  -0.09613  -0.00748
  14        5XX         0.00000   0.00000   0.00000   0.00000   0.00000
  15        5YY         0.00000   0.00000   0.00000   0.00000   0.00000
  16        5ZZ         0.00000   0.00000   0.00000   0.00000   0.00000
  17        5XY         0.00000   0.00000   0.00000   0.00000   0.00000
  18        5XZ        -0.00230   0.01127  -0.00622   0.00910   0.00373
  19        5YZ         0.00919   0.00226   0.00147  -0.00722   0.01529
  20 2   C  1S          0.00000   0.00000   0.00000   0.00000   0.00000
  21        2S          0.00000   0.00000   0.00000   0.00000   0.00000
  22        2PX         0.00000   0.00000   0.00000   0.00000   0.00000
  23        2PY         0.00000   0.00000   0.00000   0.00000   0.00000
  24        2PZ        -0.10616   0.20871  -0.00000   0.00000   0.25177
  25        3S          0.00000   0.00000   0.00000   0.00000   0.00000
  26        3PX         0.00000   0.00000   0.00000   0.00000   0.00000
  27        3PY         0.00000   0.00000   0.00000   0.00000   0.00000
  28        3PZ        -0.07534   0.10612  -0.00000   0.00000   0.16727
  29        4S          0.00000   0.00000   0.00000   0.00000   0.00000
  30        4PX         0.00000   0.00000   0.00000   0.00000   0.00000
  31        4PY         0.00000   0.00000   0.00000   0.00000   0.00000
  32        4PZ        -0.05511  -0.06186  -0.00000   0.00000   0.06616
  33        5XX         0.00000   0.00000   0.00000   0.00000   0.00000
  34        5YY         0.00000   0.00000   0.00000   0.00000   0.00000
  35        5ZZ         0.00000   0.00000   0.00000   0.00000   0.00000
  36        5XY         0.00000   0.00000   0.00000   0.00000   0.00000
  37        5XZ         0.00916  -0.01327  -0.00000   0.00000  -0.00939
  38        5YZ        -0.00000   0.00000  -0.01388   0.01105   0.00000
  39 3   F  1S          0.00000   0.00000   0.00000   0.00000   0.00000
  40        2S          0.00000   0.00000   0.00000   0.00000   0.00000
  41        2PX         0.00000   0.00000   0.00000   0.00000   0.00000
  42        2PY         0.00000   0.00000   0.00000   0.00000   0.00000
  43        2PZ         0.10905  -0.20519  -0.00000   0.00000  -0.14693
  44        3S          0.00000   0.00000   0.00000   0.00000   0.00000
  45        3PX         0.00000   0.00000   0.00000   0.00000   0.00000
  46        3PY         0.00000   0.00000   0.00000   0.00000   0.00000
  47        3PZ         0.07209  -0.13713  -0.00000   0.00000  -0.10226
  48        4S          0.00000   0.00000   0.00000   0.00000   0.00000
  49        4PX         0.00000   0.00000   0.00000   0.00000   0.00000
  50        4PY         0.00000   0.00000   0.00000   0.00000   0.00000
  51        4PZ         0.03723  -0.03757  -0.00000  -0.00000  -0.04525
  52        5XX         0.00000   0.00000   0.00000   0.00000   0.00000
  53        5YY         0.00000   0.00000   0.00000   0.00000   0.00000
  54        5ZZ         0.00000   0.00000   0.00000   0.00000   0.00000
  55        5XY         0.00000   0.00000   0.00000   0.00000   0.00000
  56        5XZ        -0.00170   0.00156  -0.00000   0.00000  -0.00191
  57        5YZ         0.00000  -0.00000  -0.00135   0.00095  -0.00000
  58 4   C  1S          0.00000   0.00000   0.00000   0.00000   0.00000
  59        2S          0.00000   0.00000   0.00000   0.00000   0.00000
  60        2PX         0.00000   0.00000   0.00000   0.00000   0.00000
  61        2PY         0.00000   0.00000   0.00000   0.00000   0.00000
  62        2PZ        -0.07496   0.17403  -0.19518   0.14095   0.06144
  63        3S          0.00000   0.00000   0.00000   0.00000   0.00000
  64        3PX         0.00000   0.00000   0.00000   0.00000   0.00000
  65        3PY         0.00000   0.00000   0.00000   0.00000   0.00000
  66        3PZ        -0.04435   0.11831  -0.12721   0.10266   0.05084
  67        4S          0.00000   0.00000   0.00000   0.00000   0.00000
  68        4PX         0.00000   0.00000   0.00000   0.00000   0.00000
  69        4PY         0.00000   0.00000   0.00000   0.00000   0.00000
  70        4PZ         0.00739   0.11672  -0.02570   0.09613   0.00748
  71        5XX         0.00000   0.00000   0.00000   0.00000   0.00000
  72        5YY         0.00000   0.00000   0.00000   0.00000   0.00000
  73        5ZZ         0.00000   0.00000   0.00000   0.00000   0.00000
  74        5XY         0.00000   0.00000   0.00000   0.00000   0.00000
  75        5XZ         0.00230   0.01127   0.00622   0.00910   0.00373
  76        5YZ         0.00919  -0.00226   0.00147   0.00722  -0.01529
  77 5   C  1S          0.00000   0.00000   0.00000   0.00000   0.00000
  78        2S          0.00000   0.00000   0.00000   0.00000   0.00000
  79        2PX         0.00000   0.00000   0.00000   0.00000   0.00000
  80        2PY         0.00000   0.00000   0.00000   0.00000   0.00000
  81        2PZ         0.20638   0.05525   0.21793   0.11266  -0.15006
  82        3S          0.00000   0.00000   0.00000   0.00000   0.00000
  83        3PX         0.00000   0.00000   0.00000   0.00000   0.00000
  84        3PY         0.00000   0.00000   0.00000   0.00000   0.00000
  85        3PZ         0.12378   0.03163   0.13760   0.07026  -0.10710
  86        4S          0.00000   0.00000   0.00000   0.00000   0.00000
  87        4PX         0.00000   0.00000   0.00000   0.00000   0.00000
  88        4PY         0.00000   0.00000   0.00000   0.00000   0.00000
  89        4PZ         0.00370   0.01470   0.02141   0.03469   0.00279
  90        5XX         0.00000   0.00000   0.00000   0.00000   0.00000
  91        5YY         0.00000   0.00000   0.00000   0.00000   0.00000
  92        5ZZ         0.00000   0.00000   0.00000   0.00000   0.00000
  93        5XY         0.00000   0.00000   0.00000   0.00000   0.00000
  94        5XZ        -0.01052   0.00321  -0.01135   0.00659  -0.00855
  95        5YZ        -0.01199  -0.00633  -0.00802  -0.01068   0.01049
  96 6   F  1S          0.00000   0.00000   0.00000   0.00000   0.00000
  97        2S          0.00000   0.00000   0.00000   0.00000   0.00000
  98        2PX         0.00000   0.00000   0.00000   0.00000   0.00000
  99        2PY         0.00000   0.00000   0.00000   0.00000   0.00000
 100        2PZ        -0.18383  -0.04679  -0.16380  -0.07991   0.08563
 101        3S          0.00000   0.00000   0.00000   0.00000   0.00000
 102        3PX         0.00000   0.00000   0.00000   0.00000   0.00000
 103        3PY         0.00000   0.00000   0.00000   0.00000   0.00000
 104        3PZ        -0.12345  -0.03154  -0.11121  -0.05461   0.06073
 105        4S          0.00000   0.00000   0.00000   0.00000   0.00000
 106        4PX         0.00000   0.00000   0.00000   0.00000   0.00000
 107        4PY         0.00000   0.00000   0.00000   0.00000   0.00000
 108        4PZ        -0.04444  -0.01082  -0.04412  -0.02131   0.02433
 109        5XX         0.00000   0.00000   0.00000   0.00000   0.00000
 110        5YY         0.00000   0.00000   0.00000   0.00000   0.00000
 111        5ZZ         0.00000   0.00000   0.00000   0.00000   0.00000
 112        5XY         0.00000   0.00000   0.00000   0.00000   0.00000
 113        5XZ         0.00062   0.00037  -0.00022   0.00049  -0.00024
 114        5YZ         0.00140   0.00016   0.00025  -0.00041   0.00160
 115 7   C  1S          0.00000   0.00000   0.00000   0.00000   0.00000
 116        2S          0.00000   0.00000   0.00000   0.00000   0.00000
 117        2PX         0.00000   0.00000   0.00000   0.00000   0.00000
 118        2PY         0.00000   0.00000   0.00000   0.00000   0.00000
 119        2PZ         0.20638  -0.05526   0.21793  -0.11266   0.15006
 120        3S          0.00000   0.00000   0.00000   0.00000   0.00000
 121        3PX         0.00000   0.00000   0.00000   0.00000   0.00000
 122        3PY         0.00000   0.00000   0.00000   0.00000   0.00000
 123        3PZ         0.12378  -0.03163   0.13760  -0.07026   0.10710
 124        4S          0.00000   0.00000   0.00000   0.00000   0.00000
 125        4PX         0.00000   0.00000   0.00000   0.00000   0.00000
 126        4PY         0.00000   0.00000   0.00000   0.00000   0.00000
 127        4PZ         0.00370  -0.01470   0.02141  -0.03469  -0.00279
 128        5XX         0.00000   0.00000   0.00000   0.00000   0.00000
 129        5YY         0.00000   0.00000   0.00000   0.00000   0.00000
 130        5ZZ         0.00000   0.00000   0.00000   0.00000   0.00000
 131        5XY         0.00000   0.00000   0.00000   0.00000   0.00000
 132        5XZ         0.01052   0.00321   0.01135   0.00659  -0.00855
 133        5YZ        -0.01199   0.00633  -0.00802   0.01068  -0.01049
 134 8   F  1S          0.00000   0.00000   0.00000   0.00000   0.00000
 135        2S          0.00000   0.00000   0.00000   0.00000   0.00000
 136        2PX         0.00000   0.00000   0.00000   0.00000   0.00000
 137        2PY         0.00000   0.00000   0.00000   0.00000   0.00000
 138        2PZ        -0.18383   0.04679  -0.16379   0.07991  -0.08563
 139        3S          0.00000   0.00000   0.00000   0.00000   0.00000
 140        3PX         0.00000   0.00000   0.00000   0.00000   0.00000
 141        3PY         0.00000   0.00000   0.00000   0.00000   0.00000
 142        3PZ        -0.12345   0.03154  -0.11121   0.05461  -0.06073
 143        4S          0.00000   0.00000   0.00000   0.00000   0.00000
 144        4PX         0.00000   0.00000   0.00000   0.00000   0.00000
 145        4PY         0.00000   0.00000   0.00000   0.00000   0.00000
 146        4PZ        -0.04444   0.01082  -0.04412   0.02131  -0.02433
 147        5XX         0.00000   0.00000   0.00000   0.00000   0.00000
 148        5YY         0.00000   0.00000   0.00000   0.00000   0.00000
 149        5ZZ         0.00000   0.00000   0.00000   0.00000   0.00000
 150        5XY         0.00000   0.00000   0.00000   0.00000   0.00000
 151        5XZ        -0.00062   0.00037   0.00022   0.00049  -0.00024
 152        5YZ         0.00140  -0.00016   0.00025   0.00041  -0.00160
 153 9   C  1S          0.00000   0.00000   0.00000   0.00000   0.00000
 154        2S          0.00000   0.00000   0.00000   0.00000   0.00000
 155        2PX         0.00000   0.00000   0.00000   0.00000   0.00000
 156        2PY         0.00000   0.00000   0.00000   0.00000   0.00000
 157        2PZ         0.10226   0.13786   0.03608   0.22393  -0.19800
 158        3S          0.00000   0.00000   0.00000   0.00000   0.00000
 159        3PX         0.00000   0.00000   0.00000   0.00000   0.00000
 160        3PY         0.00000   0.00000   0.00000   0.00000   0.00000
 161        3PZ         0.06750   0.07295   0.02421   0.13365  -0.13676
 162        4S          0.00000   0.00000   0.00000   0.00000   0.00000
 163        4PX         0.00000   0.00000   0.00000   0.00000   0.00000
 164        4PY         0.00000   0.00000   0.00000   0.00000   0.00000
 165        4PZ         0.02940  -0.02105   0.00696  -0.02192  -0.05453
 166        5XX         0.00000   0.00000   0.00000   0.00000   0.00000
 167        5YY         0.00000   0.00000   0.00000   0.00000   0.00000
 168        5ZZ         0.00000   0.00000   0.00000   0.00000   0.00000
 169        5XY         0.00000   0.00000   0.00000   0.00000   0.00000
 170        5XZ        -0.00891  -0.00887  -0.00276  -0.01197   0.00799
 171        5YZ         0.00882  -0.00436   0.01391  -0.00128  -0.00857
 172 10  F  1S          0.00000   0.00000   0.00000   0.00000   0.00000
 173        2S          0.00000   0.00000   0.00000   0.00000   0.00000
 174        2PX         0.00000   0.00000   0.00000   0.00000   0.00000
 175        2PY         0.00000   0.00000   0.00000   0.00000   0.00000
 176        2PZ        -0.09533  -0.12773  -0.02353  -0.17064   0.11366
 177        3S          0.00000   0.00000   0.00000   0.00000   0.00000
 178        3PX         0.00000   0.00000   0.00000   0.00000   0.00000
 179        3PY         0.00000   0.00000   0.00000   0.00000   0.00000
 180        3PZ        -0.06307  -0.08550  -0.01537  -0.11623   0.07907
 181        4S          0.00000   0.00000   0.00000   0.00000   0.00000
 182        4PX         0.00000   0.00000   0.00000   0.00000   0.00000
 183        4PY         0.00000   0.00000   0.00000   0.00000   0.00000
 184        4PZ        -0.03162  -0.02567  -0.01149  -0.03912   0.03793
 185        5XX         0.00000   0.00000   0.00000   0.00000   0.00000
 186        5YY         0.00000   0.00000   0.00000   0.00000   0.00000
 187        5ZZ         0.00000   0.00000   0.00000   0.00000   0.00000
 188        5XY         0.00000   0.00000   0.00000   0.00000   0.00000
 189        5XZ         0.00118   0.00086  -0.00001  -0.00002   0.00157
 190        5YZ         0.00049  -0.00012   0.00106  -0.00021  -0.00072
 191 11  C  1S          0.00000   0.00000   0.00000   0.00000   0.00000
 192        2S          0.00000   0.00000   0.00000   0.00000   0.00000
 193        2PX         0.00000   0.00000   0.00000   0.00000   0.00000
 194        2PY         0.00000   0.00000   0.00000   0.00000   0.00000
 195        2PZ         0.10226  -0.13786   0.03608  -0.22393   0.19800
 196        3S          0.00000   0.00000   0.00000   0.00000   0.00000
 197        3PX         0.00000   0.00000   0.00000   0.00000   0.00000
 198        3PY         0.00000   0.00000   0.00000   0.00000   0.00000
 199        3PZ         0.06750  -0.07295   0.02421  -0.13365   0.13676
 200        4S          0.00000   0.00000   0.00000   0.00000   0.00000
 201        4PX         0.00000   0.00000   0.00000   0.00000   0.00000
 202        4PY         0.00000   0.00000   0.00000   0.00000   0.00000
 203        4PZ         0.02940   0.02105   0.00696   0.02192   0.05453
 204        5XX         0.00000   0.00000   0.00000   0.00000   0.00000
 205        5YY         0.00000   0.00000   0.00000   0.00000   0.00000
 206        5ZZ         0.00000   0.00000   0.00000   0.00000   0.00000
 207        5XY         0.00000   0.00000   0.00000   0.00000   0.00000
 208        5XZ         0.00891  -0.00887   0.00276  -0.01197   0.00799
 209        5YZ         0.00882   0.00436   0.01391   0.00128   0.00857
 210 12  F  1S          0.00000   0.00000   0.00000   0.00000   0.00000
 211        2S          0.00000   0.00000   0.00000   0.00000   0.00000
 212        2PX         0.00000   0.00000   0.00000   0.00000   0.00000
 213        2PY         0.00000   0.00000   0.00000   0.00000   0.00000
 214        2PZ        -0.09533  -0.12773   0.02353   0.17064   0.11366
 215        3S          0.00000   0.00000   0.00000   0.00000   0.00000
 216        3PX         0.00000   0.00000   0.00000   0.00000   0.00000
 217        3PY         0.00000   0.00000   0.00000   0.00000   0.00000
 218        3PZ        -0.06307  -0.08550   0.01537   0.11623   0.07907
 219        4S          0.00000   0.00000   0.00000   0.00000   0.00000
 220        4PX         0.00000   0.00000   0.00000   0.00000   0.00000
 221        4PY         0.00000   0.00000   0.00000   0.00000   0.00000
 222        4PZ        -0.03162  -0.02567   0.01149   0.03912   0.03793
 223        5XX         0.00000   0.00000   0.00000   0.00000   0.00000
 224        5YY         0.00000   0.00000   0.00000   0.00000   0.00000
 225        5ZZ         0.00000   0.00000   0.00000   0.00000   0.00000
 226        5XY         0.00000   0.00000   0.00000   0.00000   0.00000
 227        5XZ         0.00118   0.00086   0.00001   0.00002   0.00157
 228        5YZ        -0.00049   0.00012   0.00106  -0.00021   0.00072
 229 13  C  1S          0.00000   0.00000   0.00000   0.00000   0.00000
 230        2S          0.00000   0.00000   0.00000   0.00000   0.00000
 231        2PX         0.00000   0.00000   0.00000   0.00000   0.00000
 232        2PY         0.00000   0.00000   0.00000   0.00000   0.00000
 233        2PZ        -0.07496   0.17403   0.19518  -0.14095   0.06144
 234        3S          0.00000   0.00000   0.00000   0.00000   0.00000
 235        3PX         0.00000   0.00000   0.00000   0.00000   0.00000
 236        3PY         0.00000   0.00000   0.00000   0.00000   0.00000
 237        3PZ        -0.04435   0.11831   0.12721  -0.10266   0.05084
 238        4S          0.00000   0.00000   0.00000   0.00000   0.00000
 239        4PX         0.00000   0.00000   0.00000   0.00000   0.00000
 240        4PY         0.00000   0.00000   0.00000   0.00000   0.00000
 241        4PZ         0.00739   0.11672   0.02570  -0.09613   0.00748
 242        5XX         0.00000   0.00000   0.00000   0.00000   0.00000
 243        5YY         0.00000   0.00000   0.00000   0.00000   0.00000
 244        5ZZ         0.00000   0.00000   0.00000   0.00000   0.00000
 245        5XY         0.00000   0.00000   0.00000   0.00000   0.00000
 246        5XZ         0.00230   0.01127  -0.00622  -0.00910   0.00373
 247        5YZ        -0.00919   0.00226   0.00147   0.00722   0.01529
 248 14  C  1S          0.00000   0.00000   0.00000   0.00000   0.00000
 249        2S          0.00000   0.00000   0.00000   0.00000   0.00000
 250        2PX         0.00000   0.00000   0.00000   0.00000   0.00000
 251        2PY         0.00000   0.00000   0.00000   0.00000   0.00000
 252        2PZ        -0.10616  -0.20871   0.00000   0.00000  -0.25177
 253        3S          0.00000   0.00000   0.00000   0.00000   0.00000
 254        3PX         0.00000   0.00000   0.00000   0.00000   0.00000
 255        3PY         0.00000   0.00000   0.00000   0.00000   0.00000
 256        3PZ        -0.07534  -0.10612   0.00000   0.00000  -0.16727
 257        4S          0.00000   0.00000   0.00000   0.00000   0.00000
 258        4PX         0.00000   0.00000   0.00000   0.00000   0.00000
 259        4PY         0.00000   0.00000   0.00000   0.00000   0.00000
 260        4PZ        -0.05511   0.06186   0.00000   0.00000  -0.06616
 261        5XX         0.00000   0.00000   0.00000   0.00000   0.00000
 262        5YY         0.00000   0.00000   0.00000   0.00000   0.00000
 263        5ZZ         0.00000   0.00000   0.00000   0.00000   0.00000
 264        5XY         0.00000   0.00000   0.00000   0.00000   0.00000
 265        5XZ        -0.00916  -0.01327  -0.00000  -0.00000  -0.00939
 266        5YZ         0.00000   0.00000  -0.01388  -0.01105   0.00000
 267 15  F  1S          0.00000   0.00000   0.00000   0.00000   0.00000
 268        2S          0.00000   0.00000   0.00000   0.00000   0.00000
 269        2PX         0.00000   0.00000   0.00000   0.00000   0.00000
 270        2PY         0.00000   0.00000   0.00000   0.00000   0.00000
 271        2PZ         0.10905   0.20519   0.00000   0.00000   0.14693
 272        3S          0.00000   0.00000   0.00000   0.00000   0.00000
 273        3PX         0.00000   0.00000   0.00000   0.00000   0.00000
 274        3PY         0.00000   0.00000   0.00000   0.00000   0.00000
 275        3PZ         0.07209   0.13713   0.00000   0.00000   0.10226
 276        4S          0.00000   0.00000   0.00000   0.00000   0.00000
 277        4PX         0.00000   0.00000   0.00000   0.00000   0.00000
 278        4PY         0.00000   0.00000   0.00000   0.00000   0.00000
 279        4PZ         0.03723   0.03757   0.00000  -0.00000   0.04525
 280        5XX         0.00000   0.00000   0.00000   0.00000   0.00000
 281        5YY         0.00000   0.00000   0.00000   0.00000   0.00000
 282        5ZZ         0.00000   0.00000   0.00000   0.00000   0.00000
 283        5XY         0.00000   0.00000   0.00000   0.00000   0.00000
 284        5XZ         0.00170   0.00156  -0.00000  -0.00000  -0.00191
 285        5YZ        -0.00000  -0.00000  -0.00135  -0.00095  -0.00000
 286 16  C  1S          0.00000   0.00000   0.00000   0.00000   0.00000
 287        2S          0.00000   0.00000   0.00000   0.00000   0.00000
 288        2PX         0.00000   0.00000   0.00000   0.00000   0.00000
 289        2PY         0.00000   0.00000   0.00000   0.00000   0.00000
 290        2PZ        -0.07496  -0.17403   0.19518   0.14095  -0.06144
 291        3S          0.00000   0.00000   0.00000   0.00000   0.00000
 292        3PX         0.00000   0.00000   0.00000   0.00000   0.00000
 293        3PY         0.00000   0.00000   0.00000   0.00000   0.00000
 294        3PZ        -0.04435  -0.11831   0.12721   0.10266  -0.05084
 295        4S          0.00000   0.00000   0.00000   0.00000   0.00000
 296        4PX         0.00000   0.00000   0.00000   0.00000   0.00000
 297        4PY         0.00000   0.00000   0.00000   0.00000   0.00000
 298        4PZ         0.00739  -0.11672   0.02570   0.09613  -0.00748
 299        5XX         0.00000   0.00000   0.00000   0.00000   0.00000
 300        5YY         0.00000   0.00000   0.00000   0.00000   0.00000
 301        5ZZ         0.00000   0.00000   0.00000   0.00000   0.00000
 302        5XY         0.00000   0.00000   0.00000   0.00000   0.00000
 303        5XZ        -0.00230   0.01127   0.00622  -0.00910   0.00373
 304        5YZ        -0.00919  -0.00226   0.00147  -0.00722  -0.01529
 305 17  C  1S          0.00000   0.00000   0.00000   0.00000   0.00000
 306        2S          0.00000   0.00000   0.00000   0.00000   0.00000
 307        2PX         0.00000   0.00000   0.00000   0.00000   0.00000
 308        2PY         0.00000   0.00000   0.00000   0.00000   0.00000
 309        2PZ         0.20638  -0.05525  -0.21793   0.11266   0.15006
 310        3S          0.00000   0.00000   0.00000   0.00000   0.00000
 311        3PX         0.00000   0.00000   0.00000   0.00000   0.00000
 312        3PY         0.00000   0.00000   0.00000   0.00000   0.00000
 313        3PZ         0.12378  -0.03163  -0.13760   0.07026   0.10710
 314        4S          0.00000   0.00000   0.00000   0.00000   0.00000
 315        4PX         0.00000   0.00000   0.00000   0.00000   0.00000
 316        4PY         0.00000   0.00000   0.00000   0.00000   0.00000
 317        4PZ         0.00370  -0.01470  -0.02141   0.03469  -0.00279
 318        5XX         0.00000   0.00000   0.00000   0.00000   0.00000
 319        5YY         0.00000   0.00000   0.00000   0.00000   0.00000
 320        5ZZ         0.00000   0.00000   0.00000   0.00000   0.00000
 321        5XY         0.00000   0.00000   0.00000   0.00000   0.00000
 322        5XZ         0.01052   0.00321  -0.01135  -0.00659  -0.00855
 323        5YZ         0.01199  -0.00633  -0.00802   0.01068   0.01049
 324 18  F  1S          0.00000   0.00000   0.00000   0.00000   0.00000
 325        2S          0.00000   0.00000   0.00000   0.00000   0.00000
 326        2PX         0.00000   0.00000   0.00000   0.00000   0.00000
 327        2PY         0.00000   0.00000   0.00000   0.00000   0.00000
 328        2PZ        -0.18383   0.04679   0.16380  -0.07991  -0.08563
 329        3S          0.00000   0.00000   0.00000   0.00000   0.00000
 330        3PX         0.00000   0.00000   0.00000   0.00000   0.00000
 331        3PY         0.00000   0.00000   0.00000   0.00000   0.00000
 332        3PZ        -0.12345   0.03154   0.11121  -0.05461  -0.06073
 333        4S          0.00000   0.00000   0.00000   0.00000   0.00000
 334        4PX         0.00000   0.00000   0.00000   0.00000   0.00000
 335        4PY         0.00000   0.00000   0.00000   0.00000   0.00000
 336        4PZ        -0.04444   0.01082   0.04412  -0.02131  -0.02433
 337        5XX         0.00000   0.00000   0.00000   0.00000   0.00000
 338        5YY         0.00000   0.00000   0.00000   0.00000   0.00000
 339        5ZZ         0.00000   0.00000   0.00000   0.00000   0.00000
 340        5XY         0.00000   0.00000   0.00000   0.00000   0.00000
 341        5XZ        -0.00062   0.00037  -0.00022  -0.00049  -0.00024
 342        5YZ        -0.00140   0.00016   0.00025   0.00041   0.00160
 343 19  C  1S          0.00000   0.00000   0.00000   0.00000   0.00000
 344        2S          0.00000   0.00000   0.00000   0.00000   0.00000
 345        2PX         0.00000   0.00000   0.00000   0.00000   0.00000
 346        2PY         0.00000   0.00000   0.00000   0.00000   0.00000
 347        2PZ         0.20638   0.05526  -0.21793  -0.11266  -0.15006
 348        3S          0.00000   0.00000   0.00000   0.00000   0.00000
 349        3PX         0.00000   0.00000   0.00000   0.00000   0.00000
 350        3PY         0.00000   0.00000   0.00000   0.00000   0.00000
 351        3PZ         0.12378   0.03163  -0.13760  -0.07026  -0.10710
 352        4S          0.00000   0.00000   0.00000   0.00000   0.00000
 353        4PX         0.00000   0.00000   0.00000   0.00000   0.00000
 354        4PY         0.00000   0.00000   0.00000   0.00000   0.00000
 355        4PZ         0.00370   0.01470  -0.02141  -0.03469   0.00279
 356        5XX         0.00000   0.00000   0.00000   0.00000   0.00000
 357        5YY         0.00000   0.00000   0.00000   0.00000   0.00000
 358        5ZZ         0.00000   0.00000   0.00000   0.00000   0.00000
 359        5XY         0.00000   0.00000   0.00000   0.00000   0.00000
 360        5XZ        -0.01052   0.00321   0.01135  -0.00659  -0.00855
 361        5YZ         0.01199   0.00633  -0.00802  -0.01068  -0.01049
 362 20  F  1S          0.00000   0.00000   0.00000   0.00000   0.00000
 363        2S          0.00000   0.00000   0.00000   0.00000   0.00000
 364        2PX         0.00000   0.00000   0.00000   0.00000   0.00000
 365        2PY         0.00000   0.00000   0.00000   0.00000   0.00000
 366        2PZ        -0.18383  -0.04679   0.16379   0.07991   0.08563
 367        3S          0.00000   0.00000   0.00000   0.00000   0.00000
 368        3PX         0.00000   0.00000   0.00000   0.00000   0.00000
 369        3PY         0.00000   0.00000   0.00000   0.00000   0.00000
 370        3PZ        -0.12345  -0.03154   0.11121   0.05461   0.06073
 371        4S          0.00000   0.00000   0.00000   0.00000   0.00000
 372        4PX         0.00000   0.00000   0.00000   0.00000   0.00000
 373        4PY         0.00000   0.00000   0.00000   0.00000   0.00000
 374        4PZ        -0.04444  -0.01082   0.04412   0.02131   0.02433
 375        5XX         0.00000   0.00000   0.00000   0.00000   0.00000
 376        5YY         0.00000   0.00000   0.00000   0.00000   0.00000
 377        5ZZ         0.00000   0.00000   0.00000   0.00000   0.00000
 378        5XY         0.00000   0.00000   0.00000   0.00000   0.00000
 379        5XZ         0.00062   0.00037   0.00022  -0.00049  -0.00024
 380        5YZ        -0.00140  -0.00016   0.00025  -0.00041  -0.00160
 381 21  C  1S          0.00000   0.00000   0.00000   0.00000   0.00000
 382        2S          0.00000   0.00000   0.00000   0.00000   0.00000
 383        2PX         0.00000   0.00000   0.00000   0.00000   0.00000
 384        2PY         0.00000   0.00000   0.00000   0.00000   0.00000
 385        2PZ         0.10226  -0.13786  -0.03608   0.22393   0.19800
 386        3S          0.00000   0.00000   0.00000   0.00000   0.00000
 387        3PX         0.00000   0.00000   0.00000   0.00000   0.00000
 388        3PY         0.00000   0.00000   0.00000   0.00000   0.00000
 389        3PZ         0.06750  -0.07295  -0.02421   0.13365   0.13676
 390        4S          0.00000   0.00000   0.00000   0.00000   0.00000
 391        4PX         0.00000   0.00000   0.00000   0.00000   0.00000
 392        4PY         0.00000   0.00000   0.00000   0.00000   0.00000
 393        4PZ         0.02940   0.02105  -0.00696  -0.02192   0.05453
 394        5XX         0.00000   0.00000   0.00000   0.00000   0.00000
 395        5YY         0.00000   0.00000   0.00000   0.00000   0.00000
 396        5ZZ         0.00000   0.00000   0.00000   0.00000   0.00000
 397        5XY         0.00000   0.00000   0.00000   0.00000   0.00000
 398        5XZ         0.00891  -0.00887  -0.00276   0.01197   0.00799
 399        5YZ        -0.00882  -0.00436   0.01391   0.00128  -0.00857
 400 22  F  1S          0.00000   0.00000   0.00000   0.00000   0.00000
 401        2S          0.00000   0.00000   0.00000   0.00000   0.00000
 402        2PX         0.00000   0.00000   0.00000   0.00000   0.00000
 403        2PY         0.00000   0.00000   0.00000   0.00000   0.00000
 404        2PZ        -0.09533   0.12773   0.02353  -0.17064  -0.11366
 405        3S          0.00000   0.00000   0.00000   0.00000   0.00000
 406        3PX         0.00000   0.00000   0.00000   0.00000   0.00000
 407        3PY         0.00000   0.00000   0.00000   0.00000   0.00000
 408        3PZ        -0.06307   0.08550   0.01537  -0.11623  -0.07907
 409        4S          0.00000   0.00000   0.00000   0.00000   0.00000
 410        4PX         0.00000   0.00000   0.00000   0.00000   0.00000
 411        4PY         0.00000   0.00000   0.00000   0.00000   0.00000
 412        4PZ        -0.03162   0.02567   0.01149  -0.03912  -0.03793
 413        5XX         0.00000   0.00000   0.00000   0.00000   0.00000
 414        5YY         0.00000   0.00000   0.00000   0.00000   0.00000
 415        5ZZ         0.00000   0.00000   0.00000   0.00000   0.00000
 416        5XY         0.00000   0.00000   0.00000   0.00000   0.00000
 417        5XZ        -0.00118   0.00086  -0.00001   0.00002   0.00157
 418        5YZ        -0.00049  -0.00012   0.00106   0.00021  -0.00072
 419 23  C  1S          0.00000   0.00000   0.00000   0.00000   0.00000
 420        2S          0.00000   0.00000   0.00000   0.00000   0.00000
 421        2PX         0.00000   0.00000   0.00000   0.00000   0.00000
 422        2PY         0.00000   0.00000   0.00000   0.00000   0.00000
 423        2PZ         0.10226   0.13786  -0.03608  -0.22393  -0.19800
 424        3S          0.00000   0.00000   0.00000   0.00000   0.00000
 425        3PX         0.00000   0.00000   0.00000   0.00000   0.00000
 426        3PY         0.00000   0.00000   0.00000   0.00000   0.00000
 427        3PZ         0.06750   0.07295  -0.02421  -0.13365  -0.13676
 428        4S          0.00000   0.00000   0.00000   0.00000   0.00000
 429        4PX         0.00000   0.00000   0.00000   0.00000   0.00000
 430        4PY         0.00000   0.00000   0.00000   0.00000   0.00000
 431        4PZ         0.02940  -0.02105  -0.00696   0.02192  -0.05453
 432        5XX         0.00000   0.00000   0.00000   0.00000   0.00000
 433        5YY         0.00000   0.00000   0.00000   0.00000   0.00000
 434        5ZZ         0.00000   0.00000   0.00000   0.00000   0.00000
 435        5XY         0.00000   0.00000   0.00000   0.00000   0.00000
 436        5XZ        -0.00891  -0.00887   0.00276   0.01197   0.00799
 437        5YZ        -0.00882   0.00436   0.01391  -0.00128   0.00857
 438 24  F  1S          0.00000   0.00000   0.00000   0.00000   0.00000
 439        2S          0.00000   0.00000   0.00000   0.00000   0.00000
 440        2PX         0.00000   0.00000   0.00000   0.00000   0.00000
 441        2PY         0.00000   0.00000   0.00000   0.00000   0.00000
 442        2PZ        -0.09533   0.12773  -0.02353   0.17064  -0.11366
 443        3S          0.00000   0.00000   0.00000   0.00000   0.00000
 444        3PX         0.00000   0.00000   0.00000   0.00000   0.00000
 445        3PY         0.00000   0.00000   0.00000   0.00000   0.00000
 446        3PZ        -0.06307   0.08550  -0.01537   0.11623  -0.07907
 447        4S          0.00000   0.00000   0.00000   0.00000   0.00000
 448        4PX         0.00000   0.00000   0.00000   0.00000   0.00000
 449        4PY         0.00000   0.00000   0.00000   0.00000   0.00000
 450        4PZ        -0.03162   0.02567  -0.01149   0.03912  -0.03793
 451        5XX         0.00000   0.00000   0.00000   0.00000   0.00000
 452        5YY         0.00000   0.00000   0.00000   0.00000   0.00000
 453        5ZZ         0.00000   0.00000   0.00000   0.00000   0.00000
 454        5XY         0.00000   0.00000   0.00000   0.00000   0.00000
 455        5XZ        -0.00118   0.00086   0.00001  -0.00002   0.00157
 456        5YZ         0.00049   0.00012   0.00106   0.00021   0.00072
                          88        89        90        91        92
                        (AU)--V   (AU)--V   (BG)--V   (AG)--V   (BU)--V
     Eigenvalues --    -0.13473  -0.10028  -0.07164  -0.06861  -0.06188
   1 1   C  1S          0.00000   0.00000   0.00000  -0.01326  -0.00642
   2        2S          0.00000   0.00000   0.00000   0.02854   0.01051
   3        2PX         0.00000   0.00000   0.00000   0.01972   0.02473
[...]
 241        4PZ         0.02982
 242        5XX         0.00367
 243        5YY         0.00510
 244        5ZZ        -0.02255
 245        5XY         0.01068
 246        5XZ         0.00603
 247        5YZ         0.00762
 248 14  C  1S          1.99202
 249        2S          0.69743
 250        2PX         0.56549
 251        2PY         0.78423
 252        2PZ         0.65092
 253        3S          0.56447
 254        3PX        -0.08404
 255        3PY         0.14611
 256        3PZ         0.35636
 257        4S         -0.06445
 258        4PX         0.01981
 259        4PY        -0.37954
 260        4PZ         0.01217
 261        5XX         0.01359
 262        5YY         0.00416
 263        5ZZ        -0.02431
 264        5XY         0.02328
 265        5XZ         0.01447
 266        5YZ         0.00763
 267 15  F  1S          1.99254
 268        2S          0.95586
 269        2PX         0.92359
 270        2PY         1.20611
 271        2PZ         1.16287
 272        3S          1.00281
 273        3PX         0.51042
 274        3PY         0.68259
 275        3PZ         0.66407
 276        4S          0.03671
 277        4PX        -0.00752
 278        4PY         0.03560
 279        4PZ         0.05103
 280        5XX         0.03587
 281        5YY         0.00825
 282        5ZZ         0.00863
 283        5XY         0.00454
 284        5XZ         0.00543
 285        5YZ         0.00010
 286 16  C  1S          1.99177
 287        2S          0.69152
 288        2PX         0.72957
 289        2PY         0.74350
 290        2PZ         0.63660
 291        3S          0.53255
 292        3PX         0.18452
 293        3PY         0.04883
 294        3PZ         0.41448
 295        4S         -0.29660
 296        4PX         0.67183
 297        4PY        -0.50132
 298        4PZ         0.02982
 299        5XX         0.00367
 300        5YY         0.00510
 301        5ZZ        -0.02255
 302        5XY         0.01068
 303        5XZ         0.00603
 304        5YZ         0.00762
 305 17  C  1S          1.99182
 306        2S          0.69782
 307        2PX         0.72748
 308        2PY         0.62989
 309        2PZ         0.66934
 310        3S          0.48677
 311        3PX         0.08106
 312        3PY        -0.03757
 313        3PZ         0.38329
 314        4S         -0.03701
 315        4PX         0.07853
 316        4PY         0.00379
 317        4PZ         0.01952
 318        5XX         0.00601
 319        5YY         0.01275
 320        5ZZ        -0.02439
 321        5XY         0.02103
 322        5XZ         0.00883
 323        5YZ         0.01462
 324 18  F  1S          1.99251
 325        2S          0.95975
 326        2PX         1.13647
 327        2PY         0.98492
 328        2PZ         1.16907
 329        3S          0.98814
 330        3PX         0.63839
 331        3PY         0.54530
 332        3PZ         0.66454
 333        4S          0.04723
 334        4PX         0.03421
 335        4PY         0.00895
 336        4PZ         0.04625
 337        5XX         0.01510
 338        5YY         0.03034
 339        5ZZ         0.00984
 340        5XY         0.00572
 341        5XZ         0.00128
 342        5YZ         0.00423
 343 19  C  1S          1.99182
 344        2S          0.69782
 345        2PX         0.72748
 346        2PY         0.62989
 347        2PZ         0.66934
 348        3S          0.48677
 349        3PX         0.08106
 350        3PY        -0.03757
 351        3PZ         0.38329
 352        4S         -0.03701
 353        4PX         0.07853
 354        4PY         0.00379
 355        4PZ         0.01952
 356        5XX         0.00601
 357        5YY         0.01275
 358        5ZZ        -0.02439
 359        5XY         0.02103
 360        5XZ         0.00883
 361        5YZ         0.01462
 362 20  F  1S          1.99251
 363        2S          0.95975
 364        2PX         1.13647
 365        2PY         0.98492
 366        2PZ         1.16907
 367        3S          0.98814
 368        3PX         0.63839
 369        3PY         0.54530
 370        3PZ         0.66454
 371        4S          0.04723
 372        4PX         0.03421
 373        4PY         0.00895
 374        4PZ         0.04625
 375        5XX         0.01510
 376        5YY         0.03034
 377        5ZZ         0.00984
 378        5XY         0.00572
 379        5XZ         0.00128
 380        5YZ         0.00423
 381 21  C  1S          1.99197
 382        2S          0.69482
 383        2PX         0.56935
 384        2PY         0.77970
 385        2PZ         0.66799
 386        3S          0.52250
 387        3PX        -0.09201
 388        3PY         0.14960
 389        3PZ         0.37110
 390        4S          0.39280
 391        4PX         0.01526
 392        4PY        -0.08642
 393        4PZ         0.01330
 394        5XX         0.01394
 395        5YY         0.00273
 396        5ZZ        -0.02451
 397        5XY         0.02390
 398        5XZ         0.01533
 399        5YZ         0.00744
 400 22  F  1S          1.99252
 401        2S          0.95783
 402        2PX         0.92112
 403        2PY         1.20211
 404        2PZ         1.16778
 405        3S          0.99543
 406        3PX         0.50816
 407        3PY         0.67984
 408        3PZ         0.66477
 409        4S          0.03898
 410        4PX        -0.00239
 411        4PY         0.03868
 412        4PZ         0.04872
 413        5XX         0.03668
 414        5YY         0.00868
 415        5ZZ         0.00917
 416        5XY         0.00450
 417        5XZ         0.00543
 418        5YZ         0.00008
 419 23  C  1S          1.99197
 420        2S          0.69482
 421        2PX         0.56935
 422        2PY         0.77970
 423        2PZ         0.66799
 424        3S          0.52250
 425        3PX        -0.09201
 426        3PY         0.14960
 427        3PZ         0.37110
 428        4S          0.39280
 429        4PX         0.01526
 430        4PY        -0.08642
 431        4PZ         0.01330
 432        5XX         0.01394
 433        5YY         0.00273
 434        5ZZ        -0.02451
 435        5XY         0.02390
 436        5XZ         0.01533
 437        5YZ         0.00744
 438 24  F  1S          1.99252
 439        2S          0.95783
 440        2PX         0.92112
 441        2PY         1.20211
 442        2PZ         1.16778
 443        3S          0.99543
 444        3PX         0.50816
 445        3PY         0.67984
 446        3PZ         0.66477
 447        4S          0.03898
 448        4PX        -0.00239
 449        4PY         0.03868
 450        4PZ         0.04872
 451        5XX         0.03668
 452        5YY         0.00868
 453        5ZZ         0.00917
 454        5XY         0.00450
 455        5XZ         0.00543
 456        5YZ         0.00008
          Condensed to atoms (all electrons):
               1          2          3          4          5          6
     1  C   16.078685  -1.396566  -0.080278  -3.801940  -0.126454  -0.014356
     2  C   -1.396566   9.078770   0.321183   2.351638  -0.351052  -0.022819
     3  F   -0.080278   0.321183   9.391275  -0.082990   0.009534   0.000180
     4  C   -3.801940   2.351638  -0.082990  16.078685  -2.533642  -0.021205
     5  C   -0.126454  -0.351052   0.009534  -2.533642  10.733881   0.239435
     6  F   -0.014356  -0.022819   0.000180  -0.021205   0.239435   9.346852
     7  C   -2.533639  -0.200930  -0.002079  -0.126453   0.688341  -0.066779
     8  F   -0.021205   0.009387   0.000006  -0.014356  -0.066779  -0.011037
     9  C    0.895377  -2.105163  -0.048607  -1.098363  -0.523168  -0.183671
    10  F   -0.141550   0.012761  -0.000660  -0.123564  -0.085493  -0.008712
    11  C   -1.098360   0.012775  -0.004586   0.895373  -1.940393   0.013545
    12  F   -0.003756   0.012761  -0.000660   0.059434   0.001527   0.000000
    13  C   -2.875826   2.351638  -0.082990   0.320300   0.060673  -0.000013
    14  C    2.351638  -0.672550  -0.014057  -1.396563  -0.200931   0.009387
    15  F   -0.082990  -0.014057   0.000034  -0.080278  -0.002079   0.000006
    16  C    0.320300  -1.396563  -0.080278  -2.875821  -0.131458   0.001408
    17  C    0.060673  -0.200931  -0.002079  -0.131458  -0.004701  -0.000015
    18  F   -0.000013   0.009387   0.000006   0.001408  -0.000015   0.000000
    19  C   -0.131458  -0.351051   0.009534   0.060673   0.041093   0.000013
    20  F    0.001408  -0.022819   0.000180  -0.000013   0.000013  -0.000000
    21  C   -0.617480   0.012776  -0.004586  -0.830452  -0.137194   0.000369
    22  F    0.059434  -0.016813   0.000008  -0.003756   0.000244  -0.000000
    23  C   -0.830453  -2.105162  -0.048608  -0.617480   0.087529  -0.000232
    24  F   -0.123564  -0.016813   0.000008  -0.141551  -0.025320  -0.000095
               7          8          9         10         11         12
     1  C   -2.533639  -0.021205   0.895377  -0.141550  -1.098360  -0.003756
     2  C   -0.200930   0.009387  -2.105163   0.012761   0.012775   0.012761
     3  F   -0.002079   0.000006  -0.048607  -0.000660  -0.004586  -0.000660
     4  C   -0.126453  -0.014356  -1.098363  -0.123564   0.895373   0.059434
     5  C    0.688341  -0.066779  -0.523168  -0.085493  -1.940393   0.001527
     6  F   -0.066779  -0.011037  -0.183671  -0.008712   0.013545   0.000000
     7  C   10.733880   0.239434  -1.940397  -0.025320  -0.523170   0.000244
     8  F    0.239434   9.346853   0.013544  -0.000095  -0.183671  -0.000000
     9  C   -1.940397   0.013544  11.863881   0.261626   0.669625   0.010981
    10  F   -0.025320  -0.000095   0.261626   9.366776  -0.025832  -0.000031
    11  C   -0.523170  -0.183671   0.669625  -0.025832  11.863880  -0.003485
    12  F    0.000244  -0.000000   0.010981  -0.000031  -0.003485   9.366776
    13  C   -0.131458   0.001408  -0.617480   0.059434  -0.830453  -0.123564
    14  C   -0.351051  -0.022819   0.012776  -0.016813  -2.105162  -0.016813
    15  F    0.009534   0.000180  -0.004586   0.000008  -0.048608   0.000008
    16  C    0.060673  -0.000013  -0.830452  -0.003756  -0.617480  -0.141551
    17  C    0.041093   0.000013  -0.137194   0.000244   0.087529  -0.025320
    18  F    0.000013  -0.000000   0.000369  -0.000000  -0.000232  -0.000095
    19  C   -0.004701  -0.000015   0.087529   0.001527  -0.137193  -0.085493
    20  F   -0.000015   0.000000  -0.000232   0.000000   0.000369  -0.008712
    21  C    0.087529  -0.000232  -0.176800  -0.003485  -0.091485  -0.025832
    22  F    0.001527   0.000000  -0.003485   0.000000   0.010980   0.000050
    23  C   -0.137193   0.000369  -0.091485   0.010980  -0.176798   0.261626
    24  F   -0.085493  -0.008712  -0.025832   0.000050   0.261626   0.000000
              13         14         15         16         17         18
     1  C   -2.875826   2.351638  -0.082990   0.320300   0.060673  -0.000013
     2  C    2.351638  -0.672550  -0.014057  -1.396563  -0.200931   0.009387
     3  F   -0.082990  -0.014057   0.000034  -0.080278  -0.002079   0.000006
     4  C    0.320300  -1.396563  -0.080278  -2.875821  -0.131458   0.001408
     5  C    0.060673  -0.200931  -0.002079  -0.131458  -0.004701  -0.000015
     6  F   -0.000013   0.009387   0.000006   0.001408  -0.000015   0.000000
     7  C   -0.131458  -0.351051   0.009534   0.060673   0.041093   0.000013
     8  F    0.001408  -0.022819   0.000180  -0.000013   0.000013  -0.000000
     9  C   -0.617480   0.012776  -0.004586  -0.830452  -0.137194   0.000369
    10  F    0.059434  -0.016813   0.000008  -0.003756   0.000244  -0.000000
    11  C   -0.830453  -2.105162  -0.048608  -0.617480   0.087529  -0.000232
    12  F   -0.123564  -0.016813   0.000008  -0.141551  -0.025320  -0.000095
    13  C   16.078685  -1.396566  -0.080278  -3.801940  -0.126454  -0.014356
    14  C   -1.396566   9.078770   0.321183   2.351638  -0.351052  -0.022819
    15  F   -0.080278   0.321183   9.391275  -0.082990   0.009534   0.000180
    16  C   -3.801940   2.351638  -0.082990  16.078685  -2.533642  -0.021205
    17  C   -0.126454  -0.351052   0.009534  -2.533642  10.733881   0.239435
    18  F   -0.014356  -0.022819   0.000180  -0.021205   0.239435   9.346852
    19  C   -2.533639  -0.200930  -0.002079  -0.126453   0.688341  -0.066779
    20  F   -0.021205   0.009387   0.000006  -0.014356  -0.066779  -0.011037
    21  C    0.895377  -2.105163  -0.048607  -1.098363  -0.523168  -0.183671
    22  F   -0.141550   0.012761  -0.000660  -0.123564  -0.085493  -0.008712
    23  C   -1.098360   0.012775  -0.004586   0.895373  -1.940393   0.013545
    24  F   -0.003756   0.012761  -0.000660   0.059434   0.001527   0.000000
              19         20         21         22         23         24
     1  C   -0.131458   0.001408  -0.617480   0.059434  -0.830453  -0.123564
     2  C   -0.351051  -0.022819   0.012776  -0.016813  -2.105162  -0.016813
     3  F    0.009534   0.000180  -0.004586   0.000008  -0.048608   0.000008
     4  C    0.060673  -0.000013  -0.830452  -0.003756  -0.617480  -0.141551
     5  C    0.041093   0.000013  -0.137194   0.000244   0.087529  -0.025320
     6  F    0.000013  -0.000000   0.000369  -0.000000  -0.000232  -0.000095
     7  C   -0.004701  -0.000015   0.087529   0.001527  -0.137193  -0.085493
     8  F   -0.000015   0.000000  -0.000232   0.000000   0.000369  -0.008712
     9  C    0.087529  -0.000232  -0.176800  -0.003485  -0.091485  -0.025832
    10  F    0.001527   0.000000  -0.003485   0.000000   0.010980   0.000050
    11  C   -0.137193   0.000369  -0.091485   0.010980  -0.176798   0.261626
    12  F   -0.085493  -0.008712  -0.025832   0.000050   0.261626   0.000000
    13  C   -2.533639  -0.021205   0.895377  -0.141550  -1.098360  -0.003756
    14  C   -0.200930   0.009387  -2.105163   0.012761   0.012775   0.012761
    15  F   -0.002079   0.000006  -0.048607  -0.000660  -0.004586  -0.000660
    16  C   -0.126453  -0.014356  -1.098363  -0.123564   0.895373   0.059434
    17  C    0.688341  -0.066779  -0.523168  -0.085493  -1.940393   0.001527
    18  F   -0.066779  -0.011037  -0.183671  -0.008712   0.013545   0.000000
    19  C   10.733880   0.239434  -1.940397  -0.025320  -0.523170   0.000244
    20  F    0.239434   9.346853   0.013544  -0.000095  -0.183671  -0.000000
    21  C   -1.940397   0.013544  11.863881   0.261626   0.669625   0.010981
    22  F   -0.025320  -0.000095   0.261626   9.366776  -0.025832  -0.000031
    23  C   -0.523170  -0.183671   0.669625  -0.025832  11.863880  -0.003485
    24  F    0.000244  -0.000000   0.010981  -0.000031  -0.003485   9.366776
 Mulliken charges:
               1
     1  C    0.112374
     2  C    0.700214
     3  F   -0.279489
     4  C    0.112376
     5  C    0.266410
     6  F   -0.282259
     7  C    0.266410
     8  F   -0.282259
     9  C   -0.028793
    10  F   -0.278095
    11  C   -0.028794
    12  F   -0.278095
    13  C    0.112374
    14  C    0.700214
    15  F   -0.279489
    16  C    0.112376
    17  C    0.266410
    18  F   -0.282259
    19  C    0.266410
    20  F   -0.282259
    21  C   -0.028793
    22  F   -0.278095
    23  C   -0.028794
    24  F   -0.278095
 Sum of Mulliken charges =  -0.00000
 Mulliken charges with hydrogens summed into heavy atoms:
               1
     1  C    0.112374
     2  C    0.700214
     3  F   -0.279489
     4  C    0.112376
     5  C    0.266410
     6  F   -0.282259
     7  C    0.266410
     8  F   -0.282259
     9  C   -0.028793
    10  F   -0.278095
    11  C   -0.028794
    12  F   -0.278095
    13  C    0.112374
    14  C    0.700214
    15  F   -0.279489
    16  C    0.112376
    17  C    0.266410
    18  F   -0.282259
    19  C    0.266410
    20  F   -0.282259
    21  C   -0.028793
    22  F   -0.278095
    23  C   -0.028794
    24  F   -0.278095
 Electronic spatial extent (au):  <R**2>=           8072.7927
 Charge=             -0.0000 electrons
 Dipole moment (field-independent basis, Debye):
    X=              0.0000    Y=              0.0000    Z=              0.0000  Tot=              0.0000
 Quadrupole moment (field-independent basis, Debye-Ang):
   XX=           -142.3860   YY=           -140.0130   ZZ=           -123.5068
   XY=             -0.0000   XZ=              0.0000   YZ=              0.0000
 Traceless Quadrupole moment (field-independent basis, Debye-Ang):
   XX=             -7.0841   YY=             -4.7111   ZZ=             11.7951
   XY=             -0.0000   XZ=              0.0000   YZ=              0.0000
 Octapole moment (field-independent basis, Debye-Ang**2):
  XXX=              0.0000  YYY=              0.0000  ZZZ=              0.0000  XYY=             -0.0000
  XXY=              0.0000  XXZ=              0.0000  XZZ=              0.0000  YZZ=             -0.0000
  YYZ=              0.0000  XYZ=             -0.0000
 Hexadecapole moment (field-independent basis, Debye-Ang**3):
 XXXX=          -2340.6362 YYYY=          -7068.6720 ZZZZ=           -114.3758 XXXY=              0.0001
 XXXZ=              0.0000 YYYX=             -0.0002 YYYZ=              0.0000 ZZZX=              0.0000
 ZZZY=              0.0000 XXYY=          -1576.0539 XXZZ=           -378.6282 YYZZ=          -1077.2344
 XXYZ=              0.0000 YYXZ=              0.0000 ZZXY=              0.0000
 N-N= 2.130424988702D+03 E-N=-7.868961515230D+03  KE= 1.518048721387D+03
 Symmetry AG   KE= 7.193271174973D+02
 Symmetry BG   KE= 4.131899470586D+01
 Symmetry AU   KE= 3.762082152194D+01
 Symmetry BU   KE= 7.197817876614D+02
 Orbital energies and kinetic energies (alpha):
                                 1                 2
  83         (AU)--O          -0.293055          2.153168
  84         (BG)--O          -0.290243          2.003519
  85         (BG)--O          -0.265357          1.820316
  86         (AU)--O          -0.259518          1.988583
  87         (BG)--O          -0.210140          2.019197
  88         (AU)--V          -0.134730          1.927983
  89         (AU)--V          -0.100277          1.746209
  90         (BG)--V          -0.071644          2.002772
  91         (AG)--V          -0.068614          1.895235
  92         (BU)--V          -0.061875          1.927381
 Total kinetic energy from orbitals= 1.518048721387D+03
 No NMR shielding tensors so no spin-rotation constants.
 Leave Link  601 at Thu Dec 26 16:24:54 2024, MaxMem=   104857600 cpu:              14.5 elap:               1.2
 (Enter /cm/shared/uniol/sw/SYSTEM/gaussian/g16.c01/g16/l9999.exe)

 Test job not archived.
 1\1\GINC-MPCS030\SP\RPBEPBE\6-31+G(d,p)\C14F10\TOXO0610\26-Dec-2024\0\
 \#p pbepbe/6-31+G** pop=regular scf=tight int=finegrid formcheck\\orbi
 tals calculation\\0,1\C,0,-0.72891,-1.240989,0.\C,0,1.396875,0.,0.\F,0
 ,2.747516,0.000001,0.\C,0,0.72891,-1.240989,0.\C,0,0.710999,-3.691678,
 0.\F,0,1.355858,-4.870119,0.\C,0,-0.710999,-3.691678,0.\F,0,-1.355859,
 -4.870118,0.\C,0,1.410584,-2.501018,0.\F,0,2.756722,-2.56251,0.\C,0,-1
 .410584,-2.501018,0.\F,0,2.756722,2.562509,0.\C,0,0.72891,1.240989,0.\
 C,0,-1.396875,0.,0.\F,0,-2.747516,-0.000001,0.\C,0,-0.72891,1.240989,0
 .\C,0,-0.710999,3.691678,0.\F,0,-1.355858,4.870119,0.\C,0,0.710999,3.6
 91678,0.\F,0,1.355859,4.870118,0.\C,0,-1.410584,2.501018,0.\F,0,-2.756
 722,2.56251,0.\C,0,1.410584,2.501018,0.\F,0,-2.756722,-2.562509,0.\\Ve
 rsion=ES64L-G16RevC.01\State=1-AG\HF=-1530.3612772\RMSD=8.796e-09\Dipo
 le=0.,0.,0.\Quadrupole=-5.2668326,-3.5025522,8.7693848,0.0000051,0.,0.
 \PG=C02H [SGH(C14F10)]\\@


  THE LARGE PRINT GIVETH,
  AND THE SMALL PRINT TAKETH AWAY.

                     -- TOM WAITS
 FChkPn:  Coordinates translated and rotated.
 FChkPn:  Coordinates match /B/ after translation and rotation.
 Job cpu time:       0 days  0 hours  2 minutes 23.5 seconds.
 Elapsed time:       0 days  0 hours  0 minutes 11.1 seconds.
 File lengths (MBytes):  RWF=    224 Int=      0 D2E=      0 Chk=     24 Scr=     16
 Normal termination of Gaussian 16 at Thu Dec 26 16:24:55 2024.
