orbitals calculation                                                    
SP        RPBEPBE                                                     6-31+G(d,p)         
Number of atoms                            I               24
Info1-9                                    I   N=           9
          34          32           0           0           0         111
           1          18         902
Full Title                                 C   N=           2
orbitals calculation    
Route                                      C   N=           6
#p pbepbe/6-31+G** pop=regular scf=tight int=finegrid formch
eck         
Charge                                     I                0
Multiplicity                               I                1
Number of electrons                        I               94
Number of alpha electrons                  I               47
Number of beta electrons                   I               47
Number of basis functions                  I              316
Number of independent functions            I              311
Number of point charges in /Mol/           I                0
Number of translation vectors              I                0
Atomic numbers                             I   N=          24
           6           6           1           6           6           1
           6           1           6           1           6           1
           6           6           1           6           6           1
           6           1           6           1           6           1
Nuclear charges                            R   N=          24
  6.00000000E+00  6.00000000E+00  1.00000000E+00  6.00000000E+00  6.00000000E+00
  1.00000000E+00  6.00000000E+00  1.00000000E+00  6.00000000E+00  1.00000000E+00
  6.00000000E+00  1.00000000E+00  6.00000000E+00  6.00000000E+00  1.00000000E+00
  6.00000000E+00  6.00000000E+00  1.00000000E+00  6.00000000E+00  1.00000000E+00
  6.00000000E+00  1.00000000E+00  6.00000000E+00  1.00000000E+00
Current cartesian coordinates              R   N=          72
  2.32528628E+00  1.37374612E+00  0.00000000E+00  2.42864605E-08 -2.66726906E+00
  0.00000000E+00  2.35449412E-06 -4.73944824E+00  0.00000000E+00  2.32528247E+00
 -1.37374559E+00  0.00000000E+00  6.95357325E+00 -1.35100408E+00  0.00000000E+00
  8.75327400E+00 -2.36961875E+00  0.00000000E+00  6.95357325E+00  1.35099058E+00
  0.00000000E+00  8.75327732E+00  2.36960272E+00  0.00000000E+00  4.70283104E+00
 -2.67169808E+00  0.00000000E+00  4.69860416E+00 -4.74185337E+00  0.00000000E+00
  4.70283666E+00  2.67169151E+00  0.00000000E+00 -4.69862213E+00 -4.74184679E+00
  0.00000000E+00 -2.32528628E+00 -1.37374612E+00  0.00000000E+00 -2.42864602E-08
  2.66726906E+00  0.00000000E+00 -2.35449412E-06  4.73944824E+00  0.00000000E+00
 -2.32528247E+00  1.37374559E+00  0.00000000E+00 -6.95357325E+00  1.35100408E+00
  0.00000000E+00 -8.75327400E+00  2.36961875E+00  0.00000000E+00 -6.95357325E+00
 -1.35099058E+00  0.00000000E+00 -8.75327732E+00 -2.36960272E+00  0.00000000E+00
 -4.70283104E+00  2.67169808E+00  0.00000000E+00 -4.69860416E+00  4.74185337E+00
  0.00000000E+00 -4.70283666E+00 -2.67169151E+00  0.00000000E+00  4.69862213E+00
  4.74184679E+00  0.00000000E+00
Number of symbols in /Mol/                 I                0
Int Atom Types                             I   N=          24
           0           0           0           0           0           0
           0           0           0           0           0           0
           0           0           0           0           0           0
           0           0           0           0           0           0
Force Field                                I                0
Atom Types                                 C   N=          24
                                                            
                                                            
                                                            
                                                            
                                                
MM charges                                 R   N=          24
  0.00000000E+00  0.00000000E+00  0.00000000E+00  0.00000000E+00  0.00000000E+00
  0.00000000E+00  0.00000000E+00  0.00000000E+00  0.00000000E+00  0.00000000E+00
  0.00000000E+00  0.00000000E+00  0.00000000E+00  0.00000000E+00  0.00000000E+00
  0.00000000E+00  0.00000000E+00  0.00000000E+00  0.00000000E+00  0.00000000E+00
  0.00000000E+00  0.00000000E+00  0.00000000E+00  0.00000000E+00
Integer atomic weights                     I   N=          24
          12          12           1          12          12           1
          12           1          12           1          12           1
          12          12           1          12          12           1
          12           1          12           1          12           1
Real atomic weights                        R   N=          24
  1.20000000E+01  1.20000000E+01  1.00782504E+00  1.20000000E+01  1.20000000E+01
  1.00782504E+00  1.20000000E+01  1.00782504E+00  1.20000000E+01  1.00782504E+00
  1.20000000E+01  1.00782504E+00  1.20000000E+01  1.20000000E+01  1.00782504E+00
  1.20000000E+01  1.20000000E+01  1.00782504E+00  1.20000000E+01  1.00782504E+00
  1.20000000E+01  1.00782504E+00  1.20000000E+01  1.00782504E+00
Atom fragment info                         I   N=          24
           0           0           0           0           0           0
           0           0           0           0           0           0
           0           0           0           0           0           0
           0           0           0           0           0           0
Atom residue num                           I   N=          24
           0           0           0           0           0           0
           0           0           0           0           0           0
           0           0           0           0           0           0
           0           0           0           0           0           0
Nuclear spins                              I   N=          24
           0           0           1           0           0           1
           0           1           0           1           0           1
           0           0           1           0           0           1
           0           1           0           1           0           1
Nuclear ZEff                               R   N=          24
 -3.60000000E+00 -3.60000000E+00 -1.00000000E+00 -3.60000000E+00 -3.60000000E+00
 -1.00000000E+00 -3.60000000E+00 -1.00000000E+00 -3.60000000E+00 -1.00000000E+00
 -3.60000000E+00 -1.00000000E+00 -3.60000000E+00 -3.60000000E+00 -1.00000000E+00
 -3.60000000E+00 -3.60000000E+00 -1.00000000E+00 -3.60000000E+00 -1.00000000E+00
 -3.60000000E+00 -1.00000000E+00 -3.60000000E+00 -1.00000000E+00
Nuclear ZNuc                               R   N=          24
  6.00000000E+00  6.00000000E+00  1.00000000E+00  6.00000000E+00  6.00000000E+00
  1.00000000E+00  6.00000000E+00  1.00000000E+00  6.00000000E+00  1.00000000E+00
  6.00000000E+00  1.00000000E+00  6.00000000E+00  6.00000000E+00  1.00000000E+00
  6.00000000E+00  6.00000000E+00  1.00000000E+00  6.00000000E+00  1.00000000E+00
  6.00000000E+00  1.00000000E+00  6.00000000E+00  1.00000000E+00
Nuclear QMom                               R   N=          24
  0.00000000E+00  0.00000000E+00  0.00000000E+00  0.00000000E+00  0.00000000E+00
  0.00000000E+00  0.00000000E+00  0.00000000E+00  0.00000000E+00  0.00000000E+00
  0.00000000E+00  0.00000000E+00  0.00000000E+00  0.00000000E+00  0.00000000E+00
  0.00000000E+00  0.00000000E+00  0.00000000E+00  0.00000000E+00  0.00000000E+00
  0.00000000E+00  0.00000000E+00  0.00000000E+00  0.00000000E+00
Nuclear GFac                               R   N=          24
  0.00000000E+00  0.00000000E+00  2.79284600E+00  0.00000000E+00  0.00000000E+00
  2.79284600E+00  0.00000000E+00  2.79284600E+00  0.00000000E+00  2.79284600E+00
  0.00000000E+00  2.79284600E+00  0.00000000E+00  0.00000000E+00  2.79284600E+00
  0.00000000E+00  0.00000000E+00  2.79284600E+00  0.00000000E+00  2.79284600E+00
  0.00000000E+00  2.79284600E+00  0.00000000E+00  2.79284600E+00
MicOpt                                     I   N=          24
          -1          -1          -1          -1          -1          -1
          -1          -1          -1          -1          -1          -1
          -1          -1          -1          -1          -1          -1
          -1          -1          -1          -1          -1          -1
Number of residues                         I                0
Number of secondary structures             I                0
SymInf integers                            I   N=          26
           2           4           1           1           1          -1
          -1           1           1           1          -1          -1
          -1          -1           0           0           0           0
           0           0           0           0           0           0
           0           0
RotTr to input orientation                 R   N=          12
 -6.99381886E-07  1.00000000E+00  0.00000000E+00 -1.00000000E+00 -6.99381886E-07
  0.00000000E+00  0.00000000E+00  0.00000000E+00  1.00000000E+00  9.44870659E-18
 -3.77948264E-17  0.00000000E+00
Number of contracted shells                I              100
Number of primitive shells                 I              218
Pure/Cartesian d shells                    I                1
Pure/Cartesian f shells                    I                0
Highest angular momentum                   I                2
Largest degree of contraction              I                6
Shell types                                I   N=         100
           0          -1          -1          -1           2           0
          -1          -1          -1           2           0           0
           1           0          -1          -1          -1           2
           0          -1          -1          -1           2           0
           0           1           0          -1          -1          -1
           2           0           0           1           0          -1
          -1          -1           2           0           0           1
           0          -1          -1          -1           2           0
           0           1           0          -1          -1          -1
           2           0          -1          -1          -1           2
           0           0           1           0          -1          -1
          -1           2           0          -1          -1          -1
           2           0           0           1           0          -1
          -1          -1           2           0           0           1
           0          -1          -1          -1           2           0
           0           1           0          -1          -1          -1
           2           0           0           1
Number of primitives per shell             I   N=         100
           6           3           1           1           1           6
           3           1           1           1           3           1
           1           6           3           1           1           1
           6           3           1           1           1           3
           1           1           6           3           1           1
           1           3           1           1           6           3
           1           1           1           3           1           1
           6           3           1           1           1           3
           1           1           6           3           1           1
           1           6           3           1           1           1
           3           1           1           6           3           1
           1           1           6           3           1           1
           1           3           1           1           6           3
           1           1           1           3           1           1
           6           3           1           1           1           3
           1           1           6           3           1           1
           1           3           1           1
Shell to atom map                          I   N=         100
           1           1           1           1           1           2
           2           2           2           2           3           3
           3           4           4           4           4           4
           5           5           5           5           5           6
           6           6           7           7           7           7
           7           8           8           8           9           9
           9           9           9          10          10          10
          11          11          11          11          11          12
          12          12          13          13          13          13
          13          14          14          14          14          14
          15          15          15          16          16          16
          16          16          17          17          17          17
          17          18          18          18          19          19
          19          19          19          20          20          20
          21          21          21          21          21          22
          22          22          23          23          23          23
          23          24          24          24
Primitive exponents                        R   N=         218
  3.04752488E+03  4.57369518E+02  1.03948685E+02  2.92101553E+01  9.28666296E+00
  3.16392696E+00  7.86827235E+00  1.88128854E+00  5.44249258E-01  1.68714478E-01
  4.38000000E-02  8.00000000E-01  3.04752488E+03  4.57369518E+02  1.03948685E+02
  2.92101553E+01  9.28666296E+00  3.16392696E+00  7.86827235E+00  1.88128854E+00
  5.44249258E-01  1.68714478E-01  4.38000000E-02  8.00000000E-01  1.87311370E+01
  2.82539436E+00  6.40121692E-01  1.61277759E-01  1.10000000E+00  3.04752488E+03
  4.57369518E+02  1.03948685E+02  2.92101553E+01  9.28666296E+00  3.16392696E+00
  7.86827235E+00  1.88128854E+00  5.44249258E-01  1.68714478E-01  4.38000000E-02
  8.00000000E-01  3.04752488E+03  4.57369518E+02  1.03948685E+02  2.92101553E+01
  9.28666296E+00  3.16392696E+00  7.86827235E+00  1.88128854E+00  5.44249258E-01
  1.68714478E-01  4.38000000E-02  8.00000000E-01  1.87311370E+01  2.82539436E+00
  6.40121692E-01  1.61277759E-01  1.10000000E+00  3.04752488E+03  4.57369518E+02
  1.03948685E+02  2.92101553E+01  9.28666296E+00  3.16392696E+00  7.86827235E+00
  1.88128854E+00  5.44249258E-01  1.68714478E-01  4.38000000E-02  8.00000000E-01
  1.87311370E+01  2.82539436E+00  6.40121692E-01  1.61277759E-01  1.10000000E+00
  3.04752488E+03  4.57369518E+02  1.03948685E+02  2.92101553E+01  9.28666296E+00
  3.16392696E+00  7.86827235E+00  1.88128854E+00  5.44249258E-01  1.68714478E-01
  4.38000000E-02  8.00000000E-01  1.87311370E+01  2.82539436E+00  6.40121692E-01
  1.61277759E-01  1.10000000E+00  3.04752488E+03  4.57369518E+02  1.03948685E+02
  2.92101553E+01  9.28666296E+00  3.16392696E+00  7.86827235E+00  1.88128854E+00
  5.44249258E-01  1.68714478E-01  4.38000000E-02  8.00000000E-01  1.87311370E+01
  2.82539436E+00  6.40121692E-01  1.61277759E-01  1.10000000E+00  3.04752488E+03
  4.57369518E+02  1.03948685E+02  2.92101553E+01  9.28666296E+00  3.16392696E+00
  7.86827235E+00  1.88128854E+00  5.44249258E-01  1.68714478E-01  4.38000000E-02
  8.00000000E-01  3.04752488E+03  4.57369518E+02  1.03948685E+02  2.92101553E+01
  9.28666296E+00  3.16392696E+00  7.86827235E+00  1.88128854E+00  5.44249258E-01
  1.68714478E-01  4.38000000E-02  8.00000000E-01  1.87311370E+01  2.82539436E+00
  6.40121692E-01  1.61277759E-01  1.10000000E+00  3.04752488E+03  4.57369518E+02
  1.03948685E+02  2.92101553E+01  9.28666296E+00  3.16392696E+00  7.86827235E+00
  1.88128854E+00  5.44249258E-01  1.68714478E-01  4.38000000E-02  8.00000000E-01
  3.04752488E+03  4.57369518E+02  1.03948685E+02  2.92101553E+01  9.28666296E+00
  3.16392696E+00  7.86827235E+00  1.88128854E+00  5.44249258E-01  1.68714478E-01
  4.38000000E-02  8.00000000E-01  1.87311370E+01  2.82539436E+00  6.40121692E-01
  1.61277759E-01  1.10000000E+00  3.04752488E+03  4.57369518E+02  1.03948685E+02
  2.92101553E+01  9.28666296E+00  3.16392696E+00  7.86827235E+00  1.88128854E+00
  5.44249258E-01  1.68714478E-01  4.38000000E-02  8.00000000E-01  1.87311370E+01
  2.82539436E+00  6.40121692E-01  1.61277759E-01  1.10000000E+00  3.04752488E+03
  4.57369518E+02  1.03948685E+02  2.92101553E+01  9.28666296E+00  3.16392696E+00
  7.86827235E+00  1.88128854E+00  5.44249258E-01  1.68714478E-01  4.38000000E-02
  8.00000000E-01  1.87311370E+01  2.82539436E+00  6.40121692E-01  1.61277759E-01
  1.10000000E+00  3.04752488E+03  4.57369518E+02  1.03948685E+02  2.92101553E+01
  9.28666296E+00  3.16392696E+00  7.86827235E+00  1.88128854E+00  5.44249258E-01
  1.68714478E-01  4.38000000E-02  8.00000000E-01  1.87311370E+01  2.82539436E+00
  6.40121692E-01  1.61277759E-01  1.10000000E+00
Contraction coefficients                   R   N=         218
  1.83473713E-03  1.40373228E-02  6.88426223E-02  2.32184443E-01  4.67941348E-01
  3.62311985E-01 -1.19332420E-01 -1.60854152E-01  1.14345644E+00  1.00000000E+00
  1.00000000E+00  1.00000000E+00  1.83473713E-03  1.40373228E-02  6.88426223E-02
  2.32184443E-01  4.67941348E-01  3.62311985E-01 -1.19332420E-01 -1.60854152E-01
  1.14345644E+00  1.00000000E+00  1.00000000E+00  1.00000000E+00  3.34946043E-02
  2.34726953E-01  8.13757326E-01  1.00000000E+00  1.00000000E+00  1.83473713E-03
  1.40373228E-02  6.88426223E-02  2.32184443E-01  4.67941348E-01  3.62311985E-01
 -1.19332420E-01 -1.60854152E-01  1.14345644E+00  1.00000000E+00  1.00000000E+00
  1.00000000E+00  1.83473713E-03  1.40373228E-02  6.88426223E-02  2.32184443E-01
  4.67941348E-01  3.62311985E-01 -1.19332420E-01 -1.60854152E-01  1.14345644E+00
  1.00000000E+00  1.00000000E+00  1.00000000E+00  3.34946043E-02  2.34726953E-01
  8.13757326E-01  1.00000000E+00  1.00000000E+00  1.83473713E-03  1.40373228E-02
  6.88426223E-02  2.32184443E-01  4.67941348E-01  3.62311985E-01 -1.19332420E-01
 -1.60854152E-01  1.14345644E+00  1.00000000E+00  1.00000000E+00  1.00000000E+00
  3.34946043E-02  2.34726953E-01  8.13757326E-01  1.00000000E+00  1.00000000E+00
  1.83473713E-03  1.40373228E-02  6.88426223E-02  2.32184443E-01  4.67941348E-01
  3.62311985E-01 -1.19332420E-01 -1.60854152E-01  1.14345644E+00  1.00000000E+00
  1.00000000E+00  1.00000000E+00  3.34946043E-02  2.34726953E-01  8.13757326E-01
  1.00000000E+00  1.00000000E+00  1.83473713E-03  1.40373228E-02  6.88426223E-02
  2.32184443E-01  4.67941348E-01  3.62311985E-01 -1.19332420E-01 -1.60854152E-01
  1.14345644E+00  1.00000000E+00  1.00000000E+00  1.00000000E+00  3.34946043E-02
  2.34726953E-01  8.13757326E-01  1.00000000E+00  1.00000000E+00  1.83473713E-03
  1.40373228E-02  6.88426223E-02  2.32184443E-01  4.67941348E-01  3.62311985E-01
 -1.19332420E-01 -1.60854152E-01  1.14345644E+00  1.00000000E+00  1.00000000E+00
  1.00000000E+00  1.83473713E-03  1.40373228E-02  6.88426223E-02  2.32184443E-01
  4.67941348E-01  3.62311985E-01 -1.19332420E-01 -1.60854152E-01  1.14345644E+00
  1.00000000E+00  1.00000000E+00  1.00000000E+00  3.34946043E-02  2.34726953E-01
  8.13757326E-01  1.00000000E+00  1.00000000E+00  1.83473713E-03  1.40373228E-02
  6.88426223E-02  2.32184443E-01  4.67941348E-01  3.62311985E-01 -1.19332420E-01
 -1.60854152E-01  1.14345644E+00  1.00000000E+00  1.00000000E+00  1.00000000E+00
  1.83473713E-03  1.40373228E-02  6.88426223E-02  2.32184443E-01  4.67941348E-01
  3.62311985E-01 -1.19332420E-01 -1.60854152E-01  1.14345644E+00  1.00000000E+00
  1.00000000E+00  1.00000000E+00  3.34946043E-02  2.34726953E-01  8.13757326E-01
  1.00000000E+00  1.00000000E+00  1.83473713E-03  1.40373228E-02  6.88426223E-02
  2.32184443E-01  4.67941348E-01  3.62311985E-01 -1.19332420E-01 -1.60854152E-01
  1.14345644E+00  1.00000000E+00  1.00000000E+00  1.00000000E+00  3.34946043E-02
  2.34726953E-01  8.13757326E-01  1.00000000E+00  1.00000000E+00  1.83473713E-03
  1.40373228E-02  6.88426223E-02  2.32184443E-01  4.67941348E-01  3.62311985E-01
 -1.19332420E-01 -1.60854152E-01  1.14345644E+00  1.00000000E+00  1.00000000E+00
  1.00000000E+00  3.34946043E-02  2.34726953E-01  8.13757326E-01  1.00000000E+00
  1.00000000E+00  1.83473713E-03  1.40373228E-02  6.88426223E-02  2.32184443E-01
  4.67941348E-01  3.62311985E-01 -1.19332420E-01 -1.60854152E-01  1.14345644E+00
  1.00000000E+00  1.00000000E+00  1.00000000E+00  3.34946043E-02  2.34726953E-01
  8.13757326E-01  1.00000000E+00  1.00000000E+00
P(S=P) Contraction coefficients            R   N=         218
  0.00000000E+00  0.00000000E+00  0.00000000E+00  0.00000000E+00  0.00000000E+00
  0.00000000E+00  6.89990666E-02  3.16423961E-01  7.44308291E-01  1.00000000E+00
  1.00000000E+00  0.00000000E+00  0.00000000E+00  0.00000000E+00  0.00000000E+00
  0.00000000E+00  0.00000000E+00  0.00000000E+00  6.89990666E-02  3.16423961E-01
  7.44308291E-01  1.00000000E+00  1.00000000E+00  0.00000000E+00  0.00000000E+00
  0.00000000E+00  0.00000000E+00  0.00000000E+00  0.00000000E+00  0.00000000E+00
  0.00000000E+00  0.00000000E+00  0.00000000E+00  0.00000000E+00  0.00000000E+00
  6.89990666E-02  3.16423961E-01  7.44308291E-01  1.00000000E+00  1.00000000E+00
  0.00000000E+00  0.00000000E+00  0.00000000E+00  0.00000000E+00  0.00000000E+00
  0.00000000E+00  0.00000000E+00  6.89990666E-02  3.16423961E-01  7.44308291E-01
  1.00000000E+00  1.00000000E+00  0.00000000E+00  0.00000000E+00  0.00000000E+00
  0.00000000E+00  0.00000000E+00  0.00000000E+00  0.00000000E+00  0.00000000E+00
  0.00000000E+00  0.00000000E+00  0.00000000E+00  0.00000000E+00  6.89990666E-02
  3.16423961E-01  7.44308291E-01  1.00000000E+00  1.00000000E+00  0.00000000E+00
  0.00000000E+00  0.00000000E+00  0.00000000E+00  0.00000000E+00  0.00000000E+00
  0.00000000E+00  0.00000000E+00  0.00000000E+00  0.00000000E+00  0.00000000E+00
  0.00000000E+00  6.89990666E-02  3.16423961E-01  7.44308291E-01  1.00000000E+00
  1.00000000E+00  0.00000000E+00  0.00000000E+00  0.00000000E+00  0.00000000E+00
  0.00000000E+00  0.00000000E+00  0.00000000E+00  0.00000000E+00  0.00000000E+00
  0.00000000E+00  0.00000000E+00  0.00000000E+00  6.89990666E-02  3.16423961E-01
  7.44308291E-01  1.00000000E+00  1.00000000E+00  0.00000000E+00  0.00000000E+00
  0.00000000E+00  0.00000000E+00  0.00000000E+00  0.00000000E+00  0.00000000E+00
  0.00000000E+00  0.00000000E+00  0.00000000E+00  0.00000000E+00  0.00000000E+00
  6.89990666E-02  3.16423961E-01  7.44308291E-01  1.00000000E+00  1.00000000E+00
  0.00000000E+00  0.00000000E+00  0.00000000E+00  0.00000000E+00  0.00000000E+00
  0.00000000E+00  0.00000000E+00  6.89990666E-02  3.16423961E-01  7.44308291E-01
  1.00000000E+00  1.00000000E+00  0.00000000E+00  0.00000000E+00  0.00000000E+00
  0.00000000E+00  0.00000000E+00  0.00000000E+00  0.00000000E+00  0.00000000E+00
  0.00000000E+00  0.00000000E+00  0.00000000E+00  0.00000000E+00  6.89990666E-02
  3.16423961E-01  7.44308291E-01  1.00000000E+00  1.00000000E+00  0.00000000E+00
  0.00000000E+00  0.00000000E+00  0.00000000E+00  0.00000000E+00  0.00000000E+00
  0.00000000E+00  6.89990666E-02  3.16423961E-01  7.44308291E-01  1.00000000E+00
  1.00000000E+00  0.00000000E+00  0.00000000E+00  0.00000000E+00  0.00000000E+00
  0.00000000E+00  0.00000000E+00  0.00000000E+00  0.00000000E+00  0.00000000E+00
  0.00000000E+00  0.00000000E+00  0.00000000E+00  6.89990666E-02  3.16423961E-01
  7.44308291E-01  1.00000000E+00  1.00000000E+00  0.00000000E+00  0.00000000E+00
  0.00000000E+00  0.00000000E+00  0.00000000E+00  0.00000000E+00  0.00000000E+00
  0.00000000E+00  0.00000000E+00  0.00000000E+00  0.00000000E+00  0.00000000E+00
  6.89990666E-02  3.16423961E-01  7.44308291E-01  1.00000000E+00  1.00000000E+00
  0.00000000E+00  0.00000000E+00  0.00000000E+00  0.00000000E+00  0.00000000E+00
  0.00000000E+00  0.00000000E+00  0.00000000E+00  0.00000000E+00  0.00000000E+00
  0.00000000E+00  0.00000000E+00  6.89990666E-02  3.16423961E-01  7.44308291E-01
  1.00000000E+00  1.00000000E+00  0.00000000E+00  0.00000000E+00  0.00000000E+00
  0.00000000E+00  0.00000000E+00  0.00000000E+00
Coordinates of each shell                  R   N=         300
  2.32528628E+00  1.37374612E+00  0.00000000E+00  2.32528628E+00  1.37374612E+00
  0.00000000E+00  2.32528628E+00  1.37374612E+00  0.00000000E+00  2.32528628E+00
  1.37374612E+00  0.00000000E+00  2.32528628E+00  1.37374612E+00  0.00000000E+00
  2.42864605E-08 -2.66726906E+00  0.00000000E+00  2.42864605E-08 -2.66726906E+00
  0.00000000E+00  2.42864605E-08 -2.66726906E+00  0.00000000E+00  2.42864605E-08
 -2.66726906E+00  0.00000000E+00  2.42864605E-08 -2.66726906E+00  0.00000000E+00
  2.35449412E-06 -4.73944824E+00  0.00000000E+00  2.35449412E-06 -4.73944824E+00
  0.00000000E+00  2.35449412E-06 -4.73944824E+00  0.00000000E+00  2.32528247E+00
 -1.37374559E+00  0.00000000E+00  2.32528247E+00 -1.37374559E+00  0.00000000E+00
  2.32528247E+00 -1.37374559E+00  0.00000000E+00  2.32528247E+00 -1.37374559E+00
  0.00000000E+00  2.32528247E+00 -1.37374559E+00  0.00000000E+00  6.95357325E+00
 -1.35100408E+00  0.00000000E+00  6.95357325E+00 -1.35100408E+00  0.00000000E+00
  6.95357325E+00 -1.35100408E+00  0.00000000E+00  6.95357325E+00 -1.35100408E+00
  0.00000000E+00  6.95357325E+00 -1.35100408E+00  0.00000000E+00  8.75327400E+00
 -2.36961875E+00  0.00000000E+00  8.75327400E+00 -2.36961875E+00  0.00000000E+00
  8.75327400E+00 -2.36961875E+00  0.00000000E+00  6.95357325E+00  1.35099058E+00
  0.00000000E+00  6.95357325E+00  1.35099058E+00  0.00000000E+00  6.95357325E+00
  1.35099058E+00  0.00000000E+00  6.95357325E+00  1.35099058E+00  0.00000000E+00
  6.95357325E+00  1.35099058E+00  0.00000000E+00  8.75327732E+00  2.36960272E+00
  0.00000000E+00  8.75327732E+00  2.36960272E+00  0.00000000E+00  8.75327732E+00
  2.36960272E+00  0.00000000E+00  4.70283104E+00 -2.67169808E+00  0.00000000E+00
  4.70283104E+00 -2.67169808E+00  0.00000000E+00  4.70283104E+00 -2.67169808E+00
  0.00000000E+00  4.70283104E+00 -2.67169808E+00  0.00000000E+00  4.70283104E+00
 -2.67169808E+00  0.00000000E+00  4.69860416E+00 -4.74185337E+00  0.00000000E+00
  4.69860416E+00 -4.74185337E+00  0.00000000E+00  4.69860416E+00 -4.74185337E+00
  0.00000000E+00  4.70283666E+00  2.67169151E+00  0.00000000E+00  4.70283666E+00
  2.67169151E+00  0.00000000E+00  4.70283666E+00  2.67169151E+00  0.00000000E+00
  4.70283666E+00  2.67169151E+00  0.00000000E+00  4.70283666E+00  2.67169151E+00
  0.00000000E+00 -4.69862213E+00 -4.74184679E+00  0.00000000E+00 -4.69862213E+00
 -4.74184679E+00  0.00000000E+00 -4.69862213E+00 -4.74184679E+00  0.00000000E+00
 -2.32528628E+00 -1.37374612E+00  0.00000000E+00 -2.32528628E+00 -1.37374612E+00
  0.00000000E+00 -2.32528628E+00 -1.37374612E+00  0.00000000E+00 -2.32528628E+00
 -1.37374612E+00  0.00000000E+00 -2.32528628E+00 -1.37374612E+00  0.00000000E+00
 -2.42864602E-08  2.66726906E+00  0.00000000E+00 -2.42864602E-08  2.66726906E+00
  0.00000000E+00 -2.42864602E-08  2.66726906E+00  0.00000000E+00 -2.42864602E-08
  2.66726906E+00  0.00000000E+00 -2.42864602E-08  2.66726906E+00  0.00000000E+00
 -2.35449412E-06  4.73944824E+00  0.00000000E+00 -2.35449412E-06  4.73944824E+00
  0.00000000E+00 -2.35449412E-06  4.73944824E+00  0.00000000E+00 -2.32528247E+00
  1.37374559E+00  0.00000000E+00 -2.32528247E+00  1.37374559E+00  0.00000000E+00
 -2.32528247E+00  1.37374559E+00  0.00000000E+00 -2.32528247E+00  1.37374559E+00
  0.00000000E+00 -2.32528247E+00  1.37374559E+00  0.00000000E+00 -6.95357325E+00
  1.35100408E+00  0.00000000E+00 -6.95357325E+00  1.35100408E+00  0.00000000E+00
 -6.95357325E+00  1.35100408E+00  0.00000000E+00 -6.95357325E+00  1.35100408E+00
  0.00000000E+00 -6.95357325E+00  1.35100408E+00  0.00000000E+00 -8.75327400E+00
  2.36961875E+00  0.00000000E+00 -8.75327400E+00  2.36961875E+00  0.00000000E+00
 -8.75327400E+00  2.36961875E+00  0.00000000E+00 -6.95357325E+00 -1.35099058E+00
  0.00000000E+00 -6.95357325E+00 -1.35099058E+00  0.00000000E+00 -6.95357325E+00
 -1.35099058E+00  0.00000000E+00 -6.95357325E+00 -1.35099058E+00  0.00000000E+00
 -6.95357325E+00 -1.35099058E+00  0.00000000E+00 -8.75327732E+00 -2.36960272E+00
  0.00000000E+00 -8.75327732E+00 -2.36960272E+00  0.00000000E+00 -8.75327732E+00
 -2.36960272E+00  0.00000000E+00 -4.70283104E+00  2.67169808E+00  0.00000000E+00
 -4.70283104E+00  2.67169808E+00  0.00000000E+00 -4.70283104E+00  2.67169808E+00
  0.00000000E+00 -4.70283104E+00  2.67169808E+00  0.00000000E+00 -4.70283104E+00
  2.67169808E+00  0.00000000E+00 -4.69860416E+00  4.74185337E+00  0.00000000E+00
 -4.69860416E+00  4.74185337E+00  0.00000000E+00 -4.69860416E+00  4.74185337E+00
  0.00000000E+00 -4.70283666E+00 -2.67169151E+00  0.00000000E+00 -4.70283666E+00
 -2.67169151E+00  0.00000000E+00 -4.70283666E+00 -2.67169151E+00  0.00000000E+00
 -4.70283666E+00 -2.67169151E+00  0.00000000E+00 -4.70283666E+00 -2.67169151E+00
  0.00000000E+00  4.69862213E+00  4.74184679E+00  0.00000000E+00  4.69862213E+00
  4.74184679E+00  0.00000000E+00  4.69862213E+00  4.74184679E+00  0.00000000E+00
Num ILSW                                   I              100
ILSW                                       I   N=         100
           0           1           0           0           2           0
           0           0           3           0        1009          -1
           4           0           0           0           0           0
           0           0           0           0           0           0
           1           0           0           0           0           0
           0           0      100000           0          -1           0
           0           0           0           0           0           0
           0           0           0           1           0           0
           0 -2000000000           1           0           0           0