 Entering Gaussian System, Link 0=g16
 Initial command:
 /cm/shared/uniol/sw/SYSTEM/gaussian/g16.c01/g16/l1.exe "/fs/dss/home/toxo0610/Perflouranthracen/04/Gau-1122745.inp" -scrdir="/fs/dss/home/toxo0610/Perflouranthracen/04/"
 Entering Link 1 = /cm/shared/uniol/sw/SYSTEM/gaussian/g16.c01/g16/l1.exe PID=   1122746.
  
 Copyright (c) 1988-2019, Gaussian, Inc.  All Rights Reserved.
  
 This is part of the Gaussian(R) 16 program.  It is based on
 the Gaussian(R) 09 system (copyright 2009, Gaussian, Inc.),
 the Gaussian(R) 03 system (copyright 2003, Gaussian, Inc.),
 the Gaussian(R) 98 system (copyright 1998, Gaussian, Inc.),
 the Gaussian(R) 94 system (copyright 1995, Gaussian, Inc.),
 the Gaussian 92(TM) system (copyright 1992, Gaussian, Inc.),
 the Gaussian 90(TM) system (copyright 1990, Gaussian, Inc.),
 the Gaussian 88(TM) system (copyright 1988, Gaussian, Inc.),
 the Gaussian 86(TM) system (copyright 1986, Carnegie Mellon
 University), and the Gaussian 82(TM) system (copyright 1983,
 Carnegie Mellon University). Gaussian is a federally registered
 trademark of Gaussian, Inc.
  
 This software contains proprietary and confidential information,
 including trade secrets, belonging to Gaussian, Inc.
  
 This software is provided under written license and may be
 used, copied, transmitted, or stored only in accord with that
 written license.
  
 The following legend is applicable only to US Government
 contracts under FAR:
  
                    RESTRICTED RIGHTS LEGEND
  
 Use, reproduction and disclosure by the US Government is
 subject to restrictions as set forth in subparagraphs (a)
 and (c) of the Commercial Computer Software - Restricted
 Rights clause in FAR 52.227-19.
  
 Gaussian, Inc.
 340 Quinnipiac St., Bldg. 40, Wallingford CT 06492
  
  
 ---------------------------------------------------------------
 Warning -- This program may not be used in any manner that
 competes with the business of Gaussian, Inc. or will provide
 assistance to any competitor of Gaussian, Inc.  The licensee
 of this program is prohibited from giving any competitor of
 Gaussian, Inc. access to this program.  By using this program,
 the user acknowledges that Gaussian, Inc. is engaged in the
 business of creating and licensing software in the field of
 computational chemistry and represents and warrants to the
 licensee that it is not a competitor of Gaussian, Inc. and that
 it will not use this program in any manner prohibited above.
 ---------------------------------------------------------------
  

 Cite this work as:
 Gaussian 16, Revision C.01,
 M. J. Frisch, G. W. Trucks, H. B. Schlegel, G. E. Scuseria, 
 M. A. Robb, J. R. Cheeseman, G. Scalmani, V. Barone, 
 G. A. Petersson, H. Nakatsuji, X. Li, M. Caricato, A. V. Marenich, 
 J. Bloino, B. G. Janesko, R. Gomperts, B. Mennucci, H. P. Hratchian, 
 J. V. Ortiz, A. F. Izmaylov, J. L. Sonnenberg, D. Williams-Young, 
 F. Ding, F. Lipparini, F. Egidi, J. Goings, B. Peng, A. Petrone, 
 T. Henderson, D. Ranasinghe, V. G. Zakrzewski, J. Gao, N. Rega, 
 G. Zheng, W. Liang, M. Hada, M. Ehara, K. Toyota, R. Fukuda, 
 J. Hasegawa, M. Ishida, T. Nakajima, Y. Honda, O. Kitao, H. Nakai, 
 T. Vreven, K. Throssell, J. A. Montgomery, Jr., J. E. Peralta, 
 F. Ogliaro, M. J. Bearpark, J. J. Heyd, E. N. Brothers, K. N. Kudin, 
 V. N. Staroverov, T. A. Keith, R. Kobayashi, J. Normand, 
 K. Raghavachari, A. P. Rendell, J. C. Burant, S. S. Iyengar, 
 J. Tomasi, M. Cossi, J. M. Millam, M. Klene, C. Adamo, R. Cammi, 
 J. W. Ochterski, R. L. Martin, K. Morokuma, O. Farkas, 
 J. B. Foresman, and D. J. Fox, Gaussian, Inc., Wallingford CT, 2019.
 
 ******************************************
 Gaussian 16:  ES64L-G16RevC.01  3-Jul-2019
                26-Dec-2024 
 ******************************************
 %NprocShared=16
 Will use up to   16 processors via shared memory.
 Default route: Test
 -----------------------------------------------------------------
 #p pbepbe/STO-3G pop=regular scf=tight int=finegrid pop=Hirshfeld
 -----------------------------------------------------------------
 1/38=1,172=1/1;
 2/12=2,17=6,18=5,40=1/2;
 3/6=3,11=2,25=1,30=1,74=1009,75=-4/1,2,3;
 4//1;
 5/5=2,32=2,38=5/2;
 6/28=1,79=1/1;
 99/5=1,9=1/99;
 Leave Link    1 at Thu Dec 26 17:08:17 2024, MaxMem=           0 cpu:               1.8 elap:               0.4
 (Enter /cm/shared/uniol/sw/SYSTEM/gaussian/g16.c01/g16/l101.exe)
 --------------------
 orbitals calculation
 --------------------
 Symbolic Z-matrix:
 Charge =  0 Multiplicity = 1
 C                    -0.72891  -1.24099   0. 
 C                     1.39688   0.        0. 
 F                     2.74752   0.        0. 
 C                     0.72891  -1.24099   0. 
 C                     0.711    -3.69168   0. 
 F                     1.35586  -4.87012   0. 
 C                    -0.711    -3.69168   0. 
 F                    -1.35586  -4.87012   0. 
 C                     1.41058  -2.50102   0. 
 F                     2.75672  -2.56251   0. 
 C                    -1.41058  -2.50102   0. 
 F                     2.75672   2.56251   0. 
 C                     0.72891   1.24099   0. 
 C                    -1.39688   0.        0. 
 F                    -2.74752  0.         0. 
 C                    -0.72891   1.24099   0. 
 C                    -0.711     3.69168   0. 
 F                    -1.35586   4.87012   0. 
 C                     0.711     3.69168   0. 
 F                     1.35586   4.87012   0. 
 C                    -1.41058   2.50102   0. 
 F                    -2.75672   2.56251   0. 
 C                     1.41058   2.50102   0. 
 F                    -2.75672  -2.56251   0. 
 
 ITRead=  0  0  0  0  0  0  0  0  0  0  0  0  0  0  0  0  0  0  0  0
 ITRead=  0  0  0  0
 MicOpt= -1 -1 -1 -1 -1 -1 -1 -1 -1 -1 -1 -1 -1 -1 -1 -1 -1 -1 -1 -1
 MicOpt= -1 -1 -1 -1
 NAtoms=     24 NQM=       24 NQMF=       0 NMMI=      0 NMMIF=      0
                NMic=       0 NMicF=      0.
                    Isotopes and Nuclear Properties:
 (Nuclear quadrupole moments (NQMom) in fm**2, nuclear magnetic moments (NMagM)
  in nuclear magnetons)

  Atom         1           2           3           4           5           6           7           8           9          10
 IAtWgt=          12          12          19          12          12          19          12          19          12          19
 AtmWgt=  12.0000000  12.0000000  18.9984032  12.0000000  12.0000000  18.9984032  12.0000000  18.9984032  12.0000000  18.9984032
 NucSpn=           0           0           1           0           0           1           0           1           0           1
 AtZEff=  -0.0000000  -0.0000000  -0.0000000  -0.0000000  -0.0000000  -0.0000000  -0.0000000  -0.0000000  -0.0000000  -0.0000000
 NQMom=    0.0000000   0.0000000   0.0000000   0.0000000   0.0000000   0.0000000   0.0000000   0.0000000   0.0000000   0.0000000
 NMagM=    0.0000000   0.0000000   2.6288670   0.0000000   0.0000000   2.6288670   0.0000000   2.6288670   0.0000000   2.6288670
 AtZNuc=   6.0000000   6.0000000   9.0000000   6.0000000   6.0000000   9.0000000   6.0000000   9.0000000   6.0000000   9.0000000

  Atom        11          12          13          14          15          16          17          18          19          20
 IAtWgt=          12          19          12          12          19          12          12          19          12          19
 AtmWgt=  12.0000000  18.9984032  12.0000000  12.0000000  18.9984032  12.0000000  12.0000000  18.9984032  12.0000000  18.9984032
 NucSpn=           0           1           0           0           1           0           0           1           0           1
 AtZEff=  -0.0000000  -0.0000000  -0.0000000  -0.0000000  -0.0000000  -0.0000000  -0.0000000  -0.0000000  -0.0000000  -0.0000000
 NQMom=    0.0000000   0.0000000   0.0000000   0.0000000   0.0000000   0.0000000   0.0000000   0.0000000   0.0000000   0.0000000
 NMagM=    0.0000000   2.6288670   0.0000000   0.0000000   2.6288670   0.0000000   0.0000000   2.6288670   0.0000000   2.6288670
 AtZNuc=   6.0000000   9.0000000   6.0000000   6.0000000   9.0000000   6.0000000   6.0000000   9.0000000   6.0000000   9.0000000

  Atom        21          22          23          24
 IAtWgt=          12          19          12          19
 AtmWgt=  12.0000000  18.9984032  12.0000000  18.9984032
 NucSpn=           0           1           0           1
 AtZEff=  -0.0000000  -0.0000000  -0.0000000  -0.0000000
 NQMom=    0.0000000   0.0000000   0.0000000   0.0000000
 NMagM=    0.0000000   2.6288670   0.0000000   2.6288670
 AtZNuc=   6.0000000   9.0000000   6.0000000   9.0000000
 Leave Link  101 at Thu Dec 26 17:08:17 2024, MaxMem=   104857600 cpu:               0.7 elap:               0.1
 (Enter /cm/shared/uniol/sw/SYSTEM/gaussian/g16.c01/g16/l202.exe)
                          Input orientation:                          
 ---------------------------------------------------------------------
 Center     Atomic      Atomic             Coordinates (Angstroms)
 Number     Number       Type             X           Y           Z
 ---------------------------------------------------------------------
      1          6           0       -0.728910   -1.240989    0.000000
      2          6           0        1.396875    0.000000    0.000000
      3          9           0        2.747516    0.000001    0.000000
      4          6           0        0.728910   -1.240989    0.000000
      5          6           0        0.710999   -3.691678    0.000000
      6          9           0        1.355858   -4.870119    0.000000
      7          6           0       -0.710999   -3.691678    0.000000
      8          9           0       -1.355859   -4.870118    0.000000
      9          6           0        1.410584   -2.501018    0.000000
     10          9           0        2.756722   -2.562510    0.000000
     11          6           0       -1.410584   -2.501018    0.000000
     12          9           0        2.756722    2.562509    0.000000
     13          6           0        0.728910    1.240989    0.000000
     14          6           0       -1.396875    0.000000    0.000000
     15          9           0       -2.747516   -0.000001    0.000000
     16          6           0       -0.728910    1.240989    0.000000
     17          6           0       -0.710999    3.691678    0.000000
     18          9           0       -1.355858    4.870119    0.000000
     19          6           0        0.710999    3.691678    0.000000
     20          9           0        1.355859    4.870118    0.000000
     21          6           0       -1.410584    2.501018    0.000000
     22          9           0       -2.756722    2.562510    0.000000
     23          6           0        1.410584    2.501018    0.000000
     24          9           0       -2.756722   -2.562509    0.000000
 ---------------------------------------------------------------------
                    Distance matrix (angstroms):
                    1          2          3          4          5
     1  C    0.000000
     2  C    2.461507   0.000000
     3  F    3.691286   1.350641   0.000000
     4  C    1.457820   1.409337   2.369562   0.000000
     5  C    2.842396   3.754852   4.216147   2.450754   0.000000
     6  F    4.185313   4.870292   5.065055   3.682886   1.343341
     7  C    2.450754   4.251073   5.058638   2.842396   1.421998
     8  F    3.682885   5.594246   6.368339   4.185312   2.379206
     9  C    2.482963   2.501056   2.835927   1.432603   1.380974
    10  F    3.727740   2.900972   2.562528   2.420421   2.336665
    11  C    1.432603   3.759909   4.852308   2.482963   2.432855
    12  F    5.159092   2.900972   2.562525   4.310292   6.580261
    13  C    2.878446   1.409337   2.369561   2.481978   4.932700
    14  C    1.409337   2.793750   4.144391   2.461507   4.251073
    15  F    2.369561   4.144391   5.495032   3.691286   5.058637
    16  C    2.481978   2.461507   3.691286   2.878446   5.138535
    17  C    4.932700   4.251073   5.058637   5.138535   7.519044
    18  F    6.143184   5.594247   6.368338   6.456926   8.807739
    19  C    5.138535   3.754852   4.216145   4.932700   7.383356
    20  F    6.456926   4.870291   5.065052   6.143183   8.586047
    21  C    3.803590   3.759909   4.852307   4.310458   6.546037
    22  F    4.310293   4.880453   6.071498   5.159092   7.151221
    23  C    4.310458   2.501056   2.835925   3.803590   6.232087
    24  F    2.420421   4.880453   6.071498   3.727740   3.646932
                    6          7          8          9         10
     6  F    0.000000
     7  C    2.379206   0.000000
     8  F    2.711717   1.343341   0.000000
     9  C    2.369733   2.432855   3.642230   0.000000
    10  F    2.699533   3.646931   4.715758   1.347542   0.000000
    11  C    3.642230   1.380974   2.369732   2.821168   4.167760
    12  F    7.563490   7.151220   8.494543   5.239408   5.125019
    13  C    6.143184   5.138535   6.456926   3.803590   4.310293
    14  C    5.594247   3.754852   4.870291   3.759909   4.880453
    15  F    6.368338   4.216145   5.065052   4.852307   6.071498
    16  C    6.456926   4.932700   6.143183   4.310458   5.159092
    17  C    8.807739   7.383356   8.586047   6.546037   7.151221
    18  F   10.110670   8.586047   9.740237   7.873174   8.494545
    19  C    8.586047   7.519044   8.807738   6.232087   6.580262
    20  F    9.740237   8.807738  10.110668   7.371339   7.563490
    21  C    7.873174   6.232087   7.371339   5.742765   6.557877
    22  F    8.494545   6.580262   7.563490   6.557877   7.527542
    23  C    7.371340   6.546037   7.873173   5.002036   5.239409
    24  F    4.715758   2.336665   2.699533   4.167760   5.513444
                   11         12         13         14         15
    11  C    0.000000
    12  F    6.557877   0.000000
    13  C    4.310458   2.420421   0.000000
    14  C    2.501056   4.880453   2.461507   0.000000
    15  F    2.835925   6.071498   3.691286   1.350641   0.000000
    16  C    3.803590   3.727740   1.457820   1.409337   2.369562
    17  C    6.232087   3.646932   2.842396   3.754852   4.216147
    18  F    7.371340   4.715758   4.185313   4.870292   5.065055
    19  C    6.546037   2.336665   2.450754   4.251073   5.058638
    20  F    7.873173   2.699533   3.682885   5.594246   6.368339
    21  C    5.002036   4.167760   2.482963   2.501056   2.835927
    22  F    5.239409   5.513444   3.727740   2.900972   2.562528
    23  C    5.742765   1.347542   1.432603   3.759909   4.852308
    24  F    1.347542   7.527541   5.159092   2.900972   2.562525
                   16         17         18         19         20
    16  C    0.000000
    17  C    2.450754   0.000000
    18  F    3.682886   1.343341   0.000000
    19  C    2.842396   1.421998   2.379206   0.000000
    20  F    4.185312   2.379206   2.711717   1.343341   0.000000
    21  C    1.432603   1.380974   2.369733   2.432855   3.642230
    22  F    2.420421   2.336665   2.699533   3.646931   4.715758
    23  C    2.482963   2.432855   3.642230   1.380974   2.369732
    24  F    4.310292   6.580261   7.563490   7.151220   8.494543
                   21         22         23         24
    21  C    0.000000
    22  F    1.347542   0.000000
    23  C    2.821168   4.167760   0.000000
    24  F    5.239408   5.125019   6.557877   0.000000
 Stoichiometry    C14F10
 Framework group  C2H[SGH(C14F10)]
 Deg. of freedom    23
 Full point group                 C2H     NOp   4
 Largest Abelian subgroup         C2H     NOp   4
 Largest concise Abelian subgroup C2      NOp   2
                         Standard orientation:                         
 ---------------------------------------------------------------------
 Center     Atomic      Atomic             Coordinates (Angstroms)
 Number     Number       Type             X           Y           Z
 ---------------------------------------------------------------------
      1          6           0       -0.728910    1.240989    0.000000
      2          6           0        1.396875    0.000000   -0.000000
      3          9           0        2.747516   -0.000001   -0.000000
      4          6           0        0.728910    1.240989   -0.000000
      5          6           0        0.710999    3.691678   -0.000000
      6          9           0        1.355858    4.870119   -0.000000
      7          6           0       -0.710999    3.691678    0.000000
      8          9           0       -1.355859    4.870118    0.000000
      9          6           0        1.410584    2.501018   -0.000000
     10          9           0        2.756722    2.562510   -0.000000
     11          6           0       -1.410584    2.501018    0.000000
     12          9           0        2.756722   -2.562509   -0.000000
     13          6           0        0.728910   -1.240989    0.000000
     14          6           0       -1.396875    0.000000   -0.000000
     15          9           0       -2.747516    0.000001   -0.000000
     16          6           0       -0.728910   -1.240989   -0.000000
     17          6           0       -0.710999   -3.691678   -0.000000
     18          9           0       -1.355858   -4.870119   -0.000000
     19          6           0        0.710999   -3.691678    0.000000
     20          9           0        1.355859   -4.870118    0.000000
     21          6           0       -1.410584   -2.501018   -0.000000
     22          9           0       -2.756722   -2.562510   -0.000000
     23          6           0        1.410584   -2.501018    0.000000
     24          9           0       -2.756722    2.562509   -0.000000
 ---------------------------------------------------------------------
 Rotational constants (GHZ):           0.4225027           0.1517762           0.1116633
 Leave Link  202 at Thu Dec 26 17:08:18 2024, MaxMem=   104857600 cpu:               1.4 elap:               0.2
 (Enter /cm/shared/uniol/sw/SYSTEM/gaussian/g16.c01/g16/l301.exe)
 Standard basis: STO-3G (5D, 7F)
 Ernie: Thresh=  0.10000D-02 Tol=  0.10000D-05 Strict=F.
 There are    48 symmetry adapted cartesian basis functions of AG  symmetry.
 There are    12 symmetry adapted cartesian basis functions of BG  symmetry.
 There are    12 symmetry adapted cartesian basis functions of AU  symmetry.
 There are    48 symmetry adapted cartesian basis functions of BU  symmetry.
 There are    48 symmetry adapted basis functions of AG  symmetry.
 There are    12 symmetry adapted basis functions of BG  symmetry.
 There are    12 symmetry adapted basis functions of AU  symmetry.
 There are    48 symmetry adapted basis functions of BU  symmetry.
   120 basis functions,   360 primitive gaussians,   120 cartesian basis functions
    87 alpha electrons       87 beta electrons
       nuclear repulsion energy      2130.4249887025 Hartrees.
 IExCor= 1009 DFT=T Ex=PBE Corr=PBE ExCW=0 ScaHFX=  0.000000
 ScaDFX=  1.000000  1.000000  1.000000  1.000000 ScalE2=  1.000000  1.000000
 IRadAn=      4 IRanWt=     -1 IRanGd=            0 ICorTp=0 IEmpDi=  4
 NAtoms=   24 NActive=   24 NUniq=   12 SFac= 4.00D+00 NAtFMM=   60 NAOKFM=F Big=F
 Integral buffers will be    131072 words long.
 Raffenetti 2 integral format.
 Two-electron integral symmetry is turned on.
 Leave Link  301 at Thu Dec 26 17:08:18 2024, MaxMem=   104857600 cpu:               0.7 elap:               0.1
 (Enter /cm/shared/uniol/sw/SYSTEM/gaussian/g16.c01/g16/l302.exe)
 NPDir=0 NMtPBC=     1 NCelOv=     1 NCel=       1 NClECP=     1 NCelD=      1
         NCelK=      1 NCelE2=     1 NClLst=     1 CellRange=     0.0.
 One-electron integrals computed using PRISM.
 One-electron integral symmetry used in STVInt
 NBasis=   120 RedAO= T EigKep=  1.80D-01  NBF=    48    12    12    48
 NBsUse=   120 1.00D-06 EigRej= -1.00D+00 NBFU=    48    12    12    48
 Precomputing XC quadrature grid using
 IXCGrd= 4 IRadAn=           4 IRanWt=          -1 IRanGd=           0 AccXCQ= 0.00D+00.
 Generated NRdTot=       0 NPtTot=           0 NUsed=           0 NTot=          32
 NSgBfM=   115   115   115   115   115 MxSgAt=    24 MxSgA2=    24.
 Leave Link  302 at Thu Dec 26 17:08:18 2024, MaxMem=   104857600 cpu:               6.0 elap:               0.5
 (Enter /cm/shared/uniol/sw/SYSTEM/gaussian/g16.c01/g16/l303.exe)
 DipDrv:  MaxL=1.
 Leave Link  303 at Thu Dec 26 17:08:19 2024, MaxMem=   104857600 cpu:               1.5 elap:               0.2
 (Enter /cm/shared/uniol/sw/SYSTEM/gaussian/g16.c01/g16/l401.exe)
 ExpMin= 2.22D-01 ExpMax= 1.67D+02 ExpMxC= 1.67D+02 IAcc=2 IRadAn=         4 AccDes= 0.00D+00
 Harris functional with IExCor= 1009 and IRadAn=       4 diagonalized for initial guess.
 HarFok:  IExCor= 1009 AccDes= 0.00D+00 IRadAn=         4 IDoV= 1 UseB2=F ITyADJ=14
 ICtDFT=  3500011 ScaDFX=  1.000000  1.000000  1.000000  1.000000
 FoFCou: FMM=F IPFlag=           0 FMFlag=      100000 FMFlg1=           0
         NFxFlg=           0 DoJE=T BraDBF=F KetDBF=T FulRan=T
         wScrn=  0.000000 ICntrl=       500 IOpCl=  0 I1Cent=   200000004 NGrid=           0
         NMat0=    1 NMatS0=      1 NMatT0=    0 NMatD0=    1 NMtDS0=    0 NMtDT0=    0
 Petite list used in FoFCou.
 Harris En= -1509.51895554036    
 JPrj=0 DoOrth=F DoCkMO=F.
 Initial guess orbital symmetries:
       Occupied  (BU) (AG) (BU) (AG) (AG) (BU) (BU) (AG) (BU) (AG)
                 (BU) (AG) (AG) (BU) (BU) (AG) (AG) (BU) (BU) (AG)
                 (AG) (BU) (BU) (AG) (AG) (BU) (BU) (AG) (AG) (BU)
                 (BU) (AG) (AG) (BU) (AG) (BU) (AG) (BU) (BU) (AG)
                 (BU) (AG) (AG) (BU) (AG) (BU) (AG) (BU) (BU) (AG)
                 (AG) (BU) (BU) (AG) (BU) (AG) (AU) (BU) (BG) (BU)
                 (AG) (AG) (AU) (BG) (AU) (BG) (BG) (AU) (AU) (BG)
                 (AG) (BU) (BU) (AG) (AG) (AU) (BG) (BU) (BU) (AG)
                 (AG) (BU) (BG) (AU) (BG) (AU) (BG)
       Virtual   (AU) (AU) (BG) (AU) (BG) (AG) (BU) (BU) (AU) (AG)
                 (AG) (BG) (BU) (BU) (BU) (AG) (AG) (AG) (AG) (BU)
                 (BU) (BU) (AG) (BU) (AG) (AG) (AG) (BU) (BU) (AG)
                 (BU) (BU) (AG)
 The electronic state of the initial guess is 1-AG.
 Leave Link  401 at Thu Dec 26 17:08:19 2024, MaxMem=   104857600 cpu:               3.7 elap:               0.4
 (Enter /cm/shared/uniol/sw/SYSTEM/gaussian/g16.c01/g16/l502.exe)
 Integral symmetry usage will be decided dynamically.
 Closed shell SCF:
 Using DIIS extrapolation, IDIIS=  1040.
 NGot=   104857600 LenX=   104823702 LenY=   104808861
 Requested convergence on RMS density matrix=1.00D-08 within 128 cycles.
 Requested convergence on MAX density matrix=1.00D-06.
 Requested convergence on             energy=1.00D-06.
 No special actions if energy rises.
 Fock matrices will be formed incrementally for  20 cycles.
 Integral accuracy reduced to 1.0D-05 until final iterations.

 Cycle   1  Pass 0  IDiag  1:
 FoFJK:  IHMeth= 1 ICntrl=     500 DoSepK=F KAlg= 0 I1Cent=           0 FoldK=F
 IRaf= 650000000 NMat=       1 IRICut=       1 DoRegI=T DoRafI=F ISym2E= 1 IDoP0=0 IntGTp=1.
 FoFCou: FMM=F IPFlag=           0 FMFlag=      100000 FMFlg1=           0
         NFxFlg=           0 DoJE=T BraDBF=F KetDBF=F FulRan=T
         wScrn=  0.000000 ICntrl=       500 IOpCl=  0 I1Cent=           0 NGrid=           0
         NMat0=    1 NMatS0=      1 NMatT0=    0 NMatD0=    1 NMtDS0=    0 NMtDT0=    0
 Petite list used in FoFCou.
 E= -1509.23778940411    
 DIIS: error= 1.93D-02 at cycle   1 NSaved=   1.
 NSaved= 1 IEnMin= 1 EnMin= -1509.23778940411     IErMin= 1 ErrMin= 1.93D-02
 ErrMax= 1.93D-02  0.00D+00 EMaxC= 1.00D-01 BMatC= 4.15D-02 BMatP= 4.15D-02
 IDIUse=3 WtCom= 8.07D-01 WtEn= 1.93D-01
 Coeff-Com:  0.100D+01
 Coeff-En:   0.100D+01
 Coeff:      0.100D+01
 Gap=     0.073 Goal=   None    Shift=    0.000
 GapD=    0.073 DampG=0.500 DampE=0.500 DampFc=0.2500 IDamp=-1.
 Damping current iteration by 2.50D-01
 RMSDP=6.28D-03 MaxDP=1.28D-01              OVMax= 0.00D+00

 Cycle   2  Pass 0  IDiag  1:
 RMSU=  1.57D-03    CP:  1.00D+00
 E= -1509.25807726772     Delta-E=       -0.020287863609 Rises=F Damp=T
 DIIS: error= 6.91D-03 at cycle   2 NSaved=   2.
 NSaved= 2 IEnMin= 2 EnMin= -1509.25807726772     IErMin= 2 ErrMin= 6.91D-03
 ErrMax= 6.91D-03  0.00D+00 EMaxC= 1.00D-01 BMatC= 7.72D-03 BMatP= 4.15D-02
 IDIUse=3 WtCom= 9.31D-01 WtEn= 6.91D-02
 Coeff-Com: -0.484D+00 0.148D+01
 Coeff-En:   0.000D+00 0.100D+01
 Coeff:     -0.451D+00 0.145D+01
 Gap=     0.075 Goal=   None    Shift=    0.000
 RMSDP=1.69D-03 MaxDP=2.89D-02 DE=-2.03D-02 OVMax= 0.00D+00

 Cycle   3  Pass 0  IDiag  1:
 RMSU=  1.57D-03    CP:  1.00D+00  1.38D+00
 E= -1509.29018246165     Delta-E=       -0.032105193924 Rises=F Damp=F
 DIIS: error= 7.13D-03 at cycle   3 NSaved=   3.
 NSaved= 3 IEnMin= 3 EnMin= -1509.29018246165     IErMin= 2 ErrMin= 6.91D-03
 ErrMax= 7.13D-03  0.00D+00 EMaxC= 1.00D-01 BMatC= 3.73D-03 BMatP= 7.72D-03
 IDIUse=3 WtCom= 9.29D-01 WtEn= 7.13D-02
 Coeff-Com: -0.306D+00 0.793D+00 0.513D+00
 Coeff-En:   0.000D+00 0.000D+00 0.100D+01
 Coeff:     -0.284D+00 0.736D+00 0.548D+00
 Gap=     0.076 Goal=   None    Shift=    0.000
 RMSDP=1.49D-03 MaxDP=2.89D-02 DE=-3.21D-02 OVMax= 0.00D+00

 Cycle   4  Pass 0  IDiag  1:
 RMSU=  8.29D-04    CP:  1.00D+00  1.68D+00  2.69D-01
 E= -1509.29190451235     Delta-E=       -0.001722050699 Rises=F Damp=F
 DIIS: error= 6.29D-03 at cycle   4 NSaved=   4.
 NSaved= 4 IEnMin= 4 EnMin= -1509.29190451235     IErMin= 4 ErrMin= 6.29D-03
 ErrMax= 6.29D-03  0.00D+00 EMaxC= 1.00D-01 BMatC= 2.56D-03 BMatP= 3.73D-03
 IDIUse=3 WtCom= 9.37D-01 WtEn= 6.29D-02
 Coeff-Com: -0.101D+00 0.223D+00 0.434D+00 0.444D+00
 Coeff-En:   0.000D+00 0.000D+00 0.436D+00 0.564D+00
 Coeff:     -0.950D-01 0.209D+00 0.434D+00 0.452D+00
 Gap=     0.074 Goal=   None    Shift=    0.000
 RMSDP=7.57D-04 MaxDP=1.36D-02 DE=-1.72D-03 OVMax= 0.00D+00

 Cycle   5  Pass 0  IDiag  1:
 RMSU=  1.50D-04    CP:  1.00D+00  1.56D+00  5.98D-01  3.99D-01
 E= -1509.29579398638     Delta-E=       -0.003889474033 Rises=F Damp=F
 DIIS: error= 7.11D-04 at cycle   5 NSaved=   5.
 NSaved= 5 IEnMin= 5 EnMin= -1509.29579398638     IErMin= 5 ErrMin= 7.11D-04
 ErrMax= 7.11D-04  0.00D+00 EMaxC= 1.00D-01 BMatC= 4.28D-05 BMatP= 2.56D-03
 IDIUse=3 WtCom= 9.93D-01 WtEn= 7.11D-03
 Coeff-Com: -0.464D-01 0.991D-01 0.232D+00 0.264D+00 0.452D+00
 Coeff-En:   0.000D+00 0.000D+00 0.000D+00 0.000D+00 0.100D+01
 Coeff:     -0.460D-01 0.984D-01 0.230D+00 0.262D+00 0.456D+00
 Gap=     0.074 Goal=   None    Shift=    0.000
 RMSDP=1.15D-04 MaxDP=1.94D-03 DE=-3.89D-03 OVMax= 0.00D+00

 Cycle   6  Pass 0  IDiag  1:
 RMSU=  5.09D-05    CP:  1.00D+00  1.57D+00  5.68D-01  4.56D-01  4.84D-01
 E= -1509.29585957360     Delta-E=       -0.000065587216 Rises=F Damp=F
 DIIS: error= 1.58D-04 at cycle   6 NSaved=   6.
 NSaved= 6 IEnMin= 6 EnMin= -1509.29585957360     IErMin= 6 ErrMin= 1.58D-04
 ErrMax= 1.58D-04  0.00D+00 EMaxC= 1.00D-01 BMatC= 3.51D-06 BMatP= 4.28D-05
 IDIUse=3 WtCom= 9.98D-01 WtEn= 1.58D-03
 Coeff-Com: -0.565D-02 0.115D-01 0.402D-01 0.544D-01 0.255D+00 0.645D+00
 Coeff-En:   0.000D+00 0.000D+00 0.000D+00 0.000D+00 0.385D-01 0.961D+00
 Coeff:     -0.564D-02 0.115D-01 0.401D-01 0.543D-01 0.254D+00 0.645D+00
 Gap=     0.074 Goal=   None    Shift=    0.000
 RMSDP=2.29D-05 MaxDP=5.10D-04 DE=-6.56D-05 OVMax= 0.00D+00

 Cycle   7  Pass 0  IDiag  1:
 RMSU=  1.25D-05    CP:  1.00D+00  1.57D+00  5.72D-01  4.56D-01  5.43D-01
                    CP:  6.93D-01
 E= -1509.29586385672     Delta-E=       -0.000004283124 Rises=F Damp=F
 DIIS: error= 6.67D-05 at cycle   7 NSaved=   7.
 NSaved= 7 IEnMin= 7 EnMin= -1509.29586385672     IErMin= 7 ErrMin= 6.67D-05
 ErrMax= 6.67D-05  0.00D+00 EMaxC= 1.00D-01 BMatC= 2.57D-07 BMatP= 3.51D-06
 IDIUse=1 WtCom= 1.00D+00 WtEn= 0.00D+00
 Coeff-Com: -0.183D-02 0.344D-02 0.170D-01 0.241D-01 0.142D+00 0.388D+00
 Coeff-Com:  0.428D+00
 Coeff:     -0.183D-02 0.344D-02 0.170D-01 0.241D-01 0.142D+00 0.388D+00
 Coeff:      0.428D+00
 Gap=     0.074 Goal=   None    Shift=    0.000
 RMSDP=9.45D-06 MaxDP=2.07D-04 DE=-4.28D-06 OVMax= 0.00D+00

 Initial convergence to 1.0D-05 achieved.  Increase integral accuracy.
 Cycle   8  Pass 1  IDiag  1:
 E= -1509.29583289057     Delta-E=        0.000030966146 Rises=F Damp=F
 DIIS: error= 1.40D-05 at cycle   1 NSaved=   1.
 NSaved= 1 IEnMin= 1 EnMin= -1509.29583289057     IErMin= 1 ErrMin= 1.40D-05
 ErrMax= 1.40D-05  0.00D+00 EMaxC= 1.00D-01 BMatC= 2.95D-08 BMatP= 2.95D-08
 IDIUse=1 WtCom= 1.00D+00 WtEn= 0.00D+00
 Coeff-Com:  0.100D+01
 Coeff:      0.100D+01
 Gap=     0.074 Goal=   None    Shift=    0.000
 RMSDP=9.45D-06 MaxDP=2.07D-04 DE= 3.10D-05 OVMax= 0.00D+00

 Cycle   9  Pass 1  IDiag  1:
 RMSU=  5.78D-06    CP:  1.00D+00
 E= -1509.29583283789     Delta-E=        0.000000052686 Rises=F Damp=F
 DIIS: error= 2.91D-05 at cycle   2 NSaved=   2.
 NSaved= 2 IEnMin= 1 EnMin= -1509.29583289057     IErMin= 1 ErrMin= 1.40D-05
 ErrMax= 2.91D-05  0.00D+00 EMaxC= 1.00D-01 BMatC= 7.91D-08 BMatP= 2.95D-08
 IDIUse=1 WtCom= 1.00D+00 WtEn= 0.00D+00
 Coeff-Com:  0.638D+00 0.362D+00
 Coeff:      0.638D+00 0.362D+00
 Gap=     0.074 Goal=   None    Shift=    0.000
 RMSDP=4.13D-06 MaxDP=6.11D-05 DE= 5.27D-08 OVMax= 0.00D+00

 Cycle  10  Pass 1  IDiag  1:
 RMSU=  2.15D-06    CP:  1.00D+00  3.91D-01
 E= -1509.29583294049     Delta-E=       -0.000000102602 Rises=F Damp=F
 DIIS: error= 6.25D-06 at cycle   3 NSaved=   3.
 NSaved= 3 IEnMin= 3 EnMin= -1509.29583294049     IErMin= 3 ErrMin= 6.25D-06
 ErrMax= 6.25D-06  0.00D+00 EMaxC= 1.00D-01 BMatC= 3.39D-09 BMatP= 2.95D-08
 IDIUse=1 WtCom= 1.00D+00 WtEn= 0.00D+00
 Coeff-Com:  0.376D-01 0.176D+00 0.786D+00
 Coeff:      0.376D-01 0.176D+00 0.786D+00
 Gap=     0.074 Goal=   None    Shift=    0.000
 RMSDP=8.14D-07 MaxDP=1.70D-05 DE=-1.03D-07 OVMax= 0.00D+00

 Cycle  11  Pass 1  IDiag  1:
 RMSU=  4.10D-07    CP:  1.00D+00  4.76D-01  7.67D-01
 E= -1509.29583294479     Delta-E=       -0.000000004299 Rises=F Damp=F
 DIIS: error= 1.51D-06 at cycle   4 NSaved=   4.
 NSaved= 4 IEnMin= 4 EnMin= -1509.29583294479     IErMin= 4 ErrMin= 1.51D-06
 ErrMax= 1.51D-06  0.00D+00 EMaxC= 1.00D-01 BMatC= 2.06D-10 BMatP= 3.39D-09
 IDIUse=1 WtCom= 1.00D+00 WtEn= 0.00D+00
 Coeff-Com:  0.108D-01 0.954D-01 0.457D+00 0.437D+00
 Coeff:      0.108D-01 0.954D-01 0.457D+00 0.437D+00
 Gap=     0.074 Goal=   None    Shift=    0.000
 RMSDP=2.31D-07 MaxDP=3.23D-06 DE=-4.30D-09 OVMax= 0.00D+00

 Cycle  12  Pass 1  IDiag  1:
 RMSU=  8.05D-08    CP:  1.00D+00  4.81D-01  7.81D-01  4.83D-01
 E= -1509.29583294514     Delta-E=       -0.000000000351 Rises=F Damp=F
 DIIS: error= 2.16D-07 at cycle   5 NSaved=   5.
 NSaved= 5 IEnMin= 5 EnMin= -1509.29583294514     IErMin= 5 ErrMin= 2.16D-07
 ErrMax= 2.16D-07  0.00D+00 EMaxC= 1.00D-01 BMatC= 5.19D-12 BMatP= 2.06D-10
 IDIUse=1 WtCom= 1.00D+00 WtEn= 0.00D+00
 Coeff-Com:  0.279D-02 0.333D-01 0.165D+00 0.199D+00 0.600D+00
 Coeff:      0.279D-02 0.333D-01 0.165D+00 0.199D+00 0.600D+00
 Gap=     0.074 Goal=   None    Shift=    0.000
 RMSDP=4.01D-08 MaxDP=6.93D-07 DE=-3.51D-10 OVMax= 0.00D+00

 Cycle  13  Pass 1  IDiag  1:
 RMSU=  3.28D-08    CP:  1.00D+00  4.81D-01  7.84D-01  4.74D-01  7.39D-01
 E= -1509.29583294514     Delta-E=        0.000000000000 Rises=F Damp=F
 DIIS: error= 1.85D-07 at cycle   6 NSaved=   6.
 NSaved= 6 IEnMin= 5 EnMin= -1509.29583294514     IErMin= 6 ErrMin= 1.85D-07
 ErrMax= 1.85D-07  0.00D+00 EMaxC= 1.00D-01 BMatC= 1.81D-12 BMatP= 5.19D-12
 IDIUse=1 WtCom= 1.00D+00 WtEn= 0.00D+00
 Coeff-Com:  0.142D-03 0.720D-02 0.378D-01 0.631D-01 0.394D+00 0.498D+00
 Coeff:      0.142D-03 0.720D-02 0.378D-01 0.631D-01 0.394D+00 0.498D+00
 Gap=     0.074 Goal=   None    Shift=    0.000
 RMSDP=1.81D-08 MaxDP=3.43D-07 DE= 0.00D+00 OVMax= 0.00D+00

 Cycle  14  Pass 1  IDiag  1:
 RMSU=  6.06D-09    CP:  1.00D+00  4.81D-01  7.85D-01  4.86D-01  7.70D-01
                    CP:  5.11D-01
 E= -1509.29583294513     Delta-E=        0.000000000007 Rises=F Damp=F
 DIIS: error= 3.98D-08 at cycle   7 NSaved=   7.
 NSaved= 7 IEnMin= 5 EnMin= -1509.29583294514     IErMin= 7 ErrMin= 3.98D-08
 ErrMax= 3.98D-08  0.00D+00 EMaxC= 1.00D-01 BMatC= 7.77D-14 BMatP= 1.81D-12
 IDIUse=1 WtCom= 1.00D+00 WtEn= 0.00D+00
 Coeff-Com:  0.615D-04 0.449D-02 0.238D-01 0.408D-01 0.266D+00 0.352D+00
 Coeff-Com:  0.313D+00
 Coeff:      0.615D-04 0.449D-02 0.238D-01 0.408D-01 0.266D+00 0.352D+00
 Coeff:      0.313D+00
 Gap=     0.074 Goal=   None    Shift=    0.000
 RMSDP=4.87D-09 MaxDP=7.93D-08 DE= 7.28D-12 OVMax= 0.00D+00

 SCF Done:  E(RPBE-PBE) =  -1509.29583295     A.U. after   14 cycles
            NFock= 14  Conv=0.49D-08     -V/T= 2.0172
 KE= 1.483726124322D+03 PE=-7.825501771525D+03 EE= 2.702054825555D+03
 Leave Link  502 at Thu Dec 26 17:08:20 2024, MaxMem=   104857600 cpu:              17.5 elap:               1.3
 (Enter /cm/shared/uniol/sw/SYSTEM/gaussian/g16.c01/g16/l601.exe)
 Copying SCF densities to generalized density rwf, IOpCl= 0 IROHF=0.

 **********************************************************************

            Population analysis using the SCF Density.

 **********************************************************************

 Orbital symmetries:
       Occupied  (BU) (AG) (BU) (AG) (AG) (BU) (BU) (AG) (BU) (AG)
                 (BU) (AG) (BU) (AG) (BU) (AG) (BU) (AG) (BU) (AG)
                 (BU) (AG) (BU) (AG) (AG) (BU) (BU) (AG) (AG) (BU)
                 (BU) (AG) (AG) (BU) (AG) (BU) (AG) (BU) (BU) (AG)
                 (BU) (AG) (AG) (BU) (AG) (BU) (AG) (BU) (BU) (AG)
                 (AG) (BU) (AU) (BU) (AG) (BU) (BG) (AG) (BU) (BU)
                 (AG) (AU) (BG) (AU) (AG) (BG) (BG) (AU) (AU) (BG)
                 (AG) (BU) (BU) (AU) (AG) (AG) (BG) (BU) (BU) (AG)
                 (AG) (BU) (BG) (AU) (BG) (AU) (BG)
       Virtual   (AU) (AU) (BG) (AU) (BG) (AG) (BU) (BU) (AU) (AG)
                 (AG) (BG) (BU) (BU) (BU) (AG) (AG) (AG) (AG) (BU)
                 (BU) (BU) (BU) (AG) (AG) (AG) (BU) (AG) (BU) (AG)
                 (BU) (AG) (BU)
 The electronic state is 1-AG.
 Alpha  occ. eigenvalues --  -24.02199 -24.02199 -24.02195 -24.02195 -24.01602
 Alpha  occ. eigenvalues --  -24.01602 -24.01602 -24.01602 -24.01467 -24.01466
 Alpha  occ. eigenvalues --   -9.77770  -9.77770  -9.77707  -9.77699  -9.77679
 Alpha  occ. eigenvalues --   -9.77679  -9.77565  -9.77565  -9.77549  -9.77548
 Alpha  occ. eigenvalues --   -9.72780  -9.72777  -9.72673  -9.72666  -1.05923
 Alpha  occ. eigenvalues --   -1.05883  -1.05126  -1.04912  -1.04529  -1.04061
 Alpha  occ. eigenvalues --   -1.03869  -1.03386  -1.03326  -1.03115  -0.75332
 Alpha  occ. eigenvalues --   -0.72865  -0.68072  -0.64525  -0.62593  -0.62339
 Alpha  occ. eigenvalues --   -0.58135  -0.53322  -0.53276  -0.49071  -0.46461
 Alpha  occ. eigenvalues --   -0.44606  -0.43342  -0.42040  -0.39460  -0.38450
 Alpha  occ. eigenvalues --   -0.38332  -0.35914  -0.35584  -0.35206  -0.34935
 Alpha  occ. eigenvalues --   -0.34576  -0.34403  -0.34396  -0.33916  -0.31457
 Alpha  occ. eigenvalues --   -0.31326  -0.30524  -0.29981  -0.28772  -0.28321
 Alpha  occ. eigenvalues --   -0.26391  -0.25428  -0.24010  -0.22767  -0.22648
 Alpha  occ. eigenvalues --   -0.19451  -0.19433  -0.18578  -0.18538  -0.18496
 Alpha  occ. eigenvalues --   -0.18481  -0.17677  -0.16707  -0.16601  -0.14514
 Alpha  occ. eigenvalues --   -0.14397  -0.14113  -0.12717  -0.11683  -0.10696
 Alpha  occ. eigenvalues --   -0.10062  -0.05722
 Alpha virt. eigenvalues --    0.01726   0.05132   0.07734   0.12441   0.12601
 Alpha virt. eigenvalues --    0.16692   0.17441   0.19423   0.20203   0.23087
 Alpha virt. eigenvalues --    0.23098   0.25917   0.26575   0.29478   0.29671
 Alpha virt. eigenvalues --    0.30439   0.34367   0.35948   0.38893   0.38938
 Alpha virt. eigenvalues --    0.45834   0.46723   0.47630   0.48327   0.52983
 Alpha virt. eigenvalues --    0.56570   0.58063   0.58224   0.59798   0.65613
 Alpha virt. eigenvalues --    0.68260   0.73884   0.74273
     Molecular Orbital Coefficients:
                          83        84        85        86        87
                        (BG)--O   (AU)--O   (BG)--O   (AU)--O   (BG)--O
     Eigenvalues --    -0.12717  -0.11683  -0.10696  -0.10062  -0.05722
   1 1   C  1S          0.00000   0.00000   0.00000   0.00000   0.00000
   2        2S          0.00000   0.00000   0.00000   0.00000   0.00000
   3        2PX         0.00000   0.00000   0.00000   0.00000   0.00000
   4        2PY         0.00000   0.00000   0.00000   0.00000   0.00000
   5        2PZ         0.23645   0.07018   0.18562   0.21177  -0.08080
   6 2   C  1S          0.00000   0.00000   0.00000   0.00000   0.00000
   7        2S          0.00000   0.00000   0.00000   0.00000   0.00000
   8        2PX         0.00000   0.00000   0.00000   0.00000   0.00000
   9        2PY         0.00000   0.00000   0.00000   0.00000   0.00000
  10        2PZ        -0.20947   0.09324  -0.00000  -0.00000   0.30961
  11 3   F  1S          0.00000   0.00000   0.00000   0.00000   0.00000
  12        2S          0.00000   0.00000   0.00000   0.00000   0.00000
  13        2PX         0.00000   0.00000   0.00000   0.00000   0.00000
  14        2PY         0.00000   0.00000   0.00000   0.00000   0.00000
  15        2PZ         0.42227  -0.15261   0.00000  -0.00000  -0.27396
  16 4   C  1S          0.00000   0.00000   0.00000   0.00000   0.00000
  17        2S          0.00000   0.00000   0.00000   0.00000   0.00000
  18        2PX         0.00000   0.00000   0.00000   0.00000   0.00000
  19        2PY         0.00000   0.00000   0.00000   0.00000   0.00000
  20        2PZ        -0.23645   0.07018   0.18562  -0.21177   0.08080
  21 5   C  1S          0.00000   0.00000   0.00000   0.00000   0.00000
  22        2S          0.00000   0.00000   0.00000   0.00000   0.00000
  23        2PX         0.00000   0.00000   0.00000   0.00000   0.00000
  24        2PY         0.00000   0.00000   0.00000   0.00000   0.00000
  25        2PZ        -0.04404  -0.23193  -0.26410  -0.11954  -0.19390
  26 6   F  1S          0.00000   0.00000   0.00000   0.00000   0.00000
  27        2S          0.00000   0.00000   0.00000   0.00000   0.00000
  28        2PX         0.00000   0.00000   0.00000   0.00000   0.00000
  29        2PY         0.00000   0.00000   0.00000   0.00000   0.00000
  30        2PZ         0.07991   0.36189   0.36555   0.15360   0.16934
  31 7   C  1S          0.00000   0.00000   0.00000   0.00000   0.00000
  32        2S          0.00000   0.00000   0.00000   0.00000   0.00000
  33        2PX         0.00000   0.00000   0.00000   0.00000   0.00000
  34        2PY         0.00000   0.00000   0.00000   0.00000   0.00000
  35        2PZ         0.04404  -0.23193  -0.26410   0.11954   0.19390
  36 8   F  1S          0.00000   0.00000   0.00000   0.00000   0.00000
  37        2S          0.00000   0.00000   0.00000   0.00000   0.00000
  38        2PX         0.00000   0.00000   0.00000   0.00000   0.00000
  39        2PY         0.00000   0.00000   0.00000   0.00000   0.00000
  40        2PZ        -0.07991   0.36188   0.36555  -0.15360  -0.16934
  41 9   C  1S          0.00000   0.00000   0.00000   0.00000   0.00000
  42        2S          0.00000   0.00000   0.00000   0.00000   0.00000
  43        2PX         0.00000   0.00000   0.00000   0.00000   0.00000
  44        2PY         0.00000   0.00000   0.00000   0.00000   0.00000
  45        2PZ        -0.12461  -0.11911  -0.08214  -0.24961  -0.25643
  46 10  F  1S          0.00000   0.00000   0.00000   0.00000   0.00000
  47        2S          0.00000   0.00000   0.00000   0.00000   0.00000
  48        2PX         0.00000   0.00000   0.00000   0.00000   0.00000
  49        2PY         0.00000   0.00000   0.00000   0.00000   0.00000
  50        2PZ         0.24520   0.19626   0.11951   0.33848   0.23004
  51 11  C  1S          0.00000   0.00000   0.00000   0.00000   0.00000
  52        2S          0.00000   0.00000   0.00000   0.00000   0.00000
  53        2PX         0.00000   0.00000   0.00000   0.00000   0.00000
  54        2PY         0.00000   0.00000   0.00000   0.00000   0.00000
  55        2PZ         0.12461  -0.11911  -0.08214   0.24961   0.25643
  56 12  F  1S          0.00000   0.00000   0.00000   0.00000   0.00000
  57        2S          0.00000   0.00000   0.00000   0.00000   0.00000
  58        2PX         0.00000   0.00000   0.00000   0.00000   0.00000
  59        2PY         0.00000   0.00000   0.00000   0.00000   0.00000
  60        2PZ         0.24520   0.19626  -0.11951  -0.33848   0.23004
  61 13  C  1S          0.00000   0.00000   0.00000   0.00000   0.00000
  62        2S          0.00000   0.00000   0.00000   0.00000   0.00000
  63        2PX         0.00000   0.00000   0.00000   0.00000   0.00000
  64        2PY         0.00000   0.00000   0.00000   0.00000   0.00000
  65        2PZ        -0.23645   0.07018  -0.18562   0.21177   0.08080
  66 14  C  1S          0.00000   0.00000   0.00000   0.00000   0.00000
  67        2S          0.00000   0.00000   0.00000   0.00000   0.00000
  68        2PX         0.00000   0.00000   0.00000   0.00000   0.00000
  69        2PY         0.00000   0.00000   0.00000   0.00000   0.00000
  70        2PZ         0.20947   0.09324   0.00000  -0.00000  -0.30961
  71 15  F  1S          0.00000   0.00000   0.00000   0.00000   0.00000
  72        2S          0.00000   0.00000   0.00000   0.00000   0.00000
  73        2PX         0.00000   0.00000   0.00000   0.00000   0.00000
  74        2PY         0.00000   0.00000   0.00000   0.00000   0.00000
  75        2PZ        -0.42227  -0.15261  -0.00000  -0.00000   0.27396
  76 16  C  1S          0.00000   0.00000   0.00000   0.00000   0.00000
  77        2S          0.00000   0.00000   0.00000   0.00000   0.00000
  78        2PX         0.00000   0.00000   0.00000   0.00000   0.00000
  79        2PY         0.00000   0.00000   0.00000   0.00000   0.00000
  80        2PZ         0.23645   0.07018  -0.18562  -0.21177  -0.08080
  81 17  C  1S          0.00000   0.00000   0.00000   0.00000   0.00000
  82        2S          0.00000   0.00000   0.00000   0.00000   0.00000
  83        2PX         0.00000   0.00000   0.00000   0.00000   0.00000
  84        2PY         0.00000   0.00000   0.00000   0.00000   0.00000
  85        2PZ         0.04404  -0.23193   0.26410  -0.11954   0.19390
  86 18  F  1S          0.00000   0.00000   0.00000   0.00000   0.00000
  87        2S          0.00000   0.00000   0.00000   0.00000   0.00000
  88        2PX         0.00000   0.00000   0.00000   0.00000   0.00000
  89        2PY         0.00000   0.00000   0.00000   0.00000   0.00000
  90        2PZ        -0.07991   0.36189  -0.36555   0.15360  -0.16934
  91 19  C  1S          0.00000   0.00000   0.00000   0.00000   0.00000
  92        2S          0.00000   0.00000   0.00000   0.00000   0.00000
  93        2PX         0.00000   0.00000   0.00000   0.00000   0.00000
  94        2PY         0.00000   0.00000   0.00000   0.00000   0.00000
  95        2PZ        -0.04404  -0.23193   0.26410   0.11954  -0.19390
  96 20  F  1S          0.00000   0.00000   0.00000   0.00000   0.00000
  97        2S          0.00000   0.00000   0.00000   0.00000   0.00000
  98        2PX         0.00000   0.00000   0.00000   0.00000   0.00000
  99        2PY         0.00000   0.00000   0.00000   0.00000   0.00000
 100        2PZ         0.07991   0.36188  -0.36555  -0.15360   0.16934
 101 21  C  1S          0.00000   0.00000   0.00000   0.00000   0.00000
 102        2S          0.00000   0.00000   0.00000   0.00000   0.00000
 103        2PX         0.00000   0.00000   0.00000   0.00000   0.00000
 104        2PY         0.00000   0.00000   0.00000   0.00000   0.00000
 105        2PZ         0.12461  -0.11911   0.08214  -0.24961   0.25643
 106 22  F  1S          0.00000   0.00000   0.00000   0.00000   0.00000
 107        2S          0.00000   0.00000   0.00000   0.00000   0.00000
 108        2PX         0.00000   0.00000   0.00000   0.00000   0.00000
 109        2PY         0.00000   0.00000   0.00000   0.00000   0.00000
 110        2PZ        -0.24520   0.19626  -0.11951   0.33848  -0.23004
 111 23  C  1S          0.00000   0.00000   0.00000   0.00000   0.00000
 112        2S          0.00000   0.00000   0.00000   0.00000   0.00000
 113        2PX         0.00000   0.00000   0.00000   0.00000   0.00000
 114        2PY         0.00000   0.00000   0.00000   0.00000   0.00000
 115        2PZ        -0.12461  -0.11911   0.08214   0.24961  -0.25643
 116 24  F  1S          0.00000   0.00000   0.00000   0.00000   0.00000
 117        2S          0.00000   0.00000   0.00000   0.00000   0.00000
 118        2PX         0.00000   0.00000   0.00000   0.00000   0.00000
 119        2PY         0.00000   0.00000   0.00000   0.00000   0.00000
 120        2PZ        -0.24520   0.19626   0.11951  -0.33848  -0.23004
                          88        89        90        91        92
                        (AU)--V   (AU)--V   (BG)--V   (AU)--V   (BG)--V
     Eigenvalues --     0.01726   0.05132   0.07734   0.12441   0.12601
   1 1   C  1S          0.00000   0.00000   0.00000   0.00000   0.00000
   2        2S          0.00000   0.00000   0.00000   0.00000   0.00000
   3        2PX         0.00000   0.00000   0.00000   0.00000   0.00000
   4        2PY         0.00000   0.00000   0.00000   0.00000   0.00000
   5        2PZ        -0.10056   0.42247  -0.20899  -0.31956   0.21825
   6 2   C  1S          0.00000   0.00000   0.00000   0.00000   0.00000
   7        2S          0.00000   0.00000   0.00000   0.00000   0.00000
   8        2PX         0.00000   0.00000   0.00000   0.00000   0.00000
   9        2PY         0.00000   0.00000   0.00000   0.00000   0.00000
  10        2PZ         0.43114  -0.00000  -0.00000   0.46292   0.32188
  11 3   F  1S          0.00000   0.00000   0.00000   0.00000   0.00000
  12        2S          0.00000   0.00000   0.00000   0.00000   0.00000
  13        2PX         0.00000   0.00000   0.00000   0.00000   0.00000
  14        2PY         0.00000   0.00000   0.00000   0.00000   0.00000
  15        2PZ        -0.24170  -0.00000   0.00000  -0.18294  -0.12096
  16 4   C  1S          0.00000   0.00000   0.00000   0.00000   0.00000
  17        2S          0.00000   0.00000   0.00000   0.00000   0.00000
  18        2PX         0.00000   0.00000   0.00000   0.00000   0.00000
  19        2PY         0.00000   0.00000   0.00000   0.00000   0.00000
  20        2PZ        -0.10056  -0.42247  -0.20899  -0.31956  -0.21825
  21 5   C  1S          0.00000   0.00000   0.00000   0.00000   0.00000
  22        2S          0.00000   0.00000   0.00000   0.00000   0.00000
  23        2PX         0.00000   0.00000   0.00000   0.00000   0.00000
  24        2PY         0.00000   0.00000   0.00000   0.00000   0.00000
  25        2PZ         0.22444   0.34578  -0.23291  -0.13851   0.44343
  26 6   F  1S          0.00000   0.00000   0.00000   0.00000   0.00000
  27        2S          0.00000   0.00000   0.00000   0.00000   0.00000
  28        2PX         0.00000   0.00000   0.00000   0.00000   0.00000
  29        2PY         0.00000   0.00000   0.00000   0.00000   0.00000
  30        2PZ        -0.12996  -0.17108   0.10579   0.05380  -0.17136
  31 7   C  1S          0.00000   0.00000   0.00000   0.00000   0.00000
  32        2S          0.00000   0.00000   0.00000   0.00000   0.00000
  33        2PX         0.00000   0.00000   0.00000   0.00000   0.00000
  34        2PY         0.00000   0.00000   0.00000   0.00000   0.00000
  35        2PZ         0.22444  -0.34578  -0.23291  -0.13851  -0.44343
  36 8   F  1S          0.00000   0.00000   0.00000   0.00000   0.00000
  37        2S          0.00000   0.00000   0.00000   0.00000   0.00000
  38        2PX         0.00000   0.00000   0.00000   0.00000   0.00000
  39        2PY         0.00000   0.00000   0.00000   0.00000   0.00000
  40        2PZ        -0.12996   0.17108   0.10579   0.05380   0.17136
  41 9   C  1S          0.00000   0.00000   0.00000   0.00000   0.00000
  42        2S          0.00000   0.00000   0.00000   0.00000   0.00000
  43        2PX         0.00000   0.00000   0.00000   0.00000   0.00000
  44        2PY         0.00000   0.00000   0.00000   0.00000   0.00000
  45        2PZ        -0.29347   0.05310   0.44265   0.32551  -0.19043
  46 10  F  1S          0.00000   0.00000   0.00000   0.00000   0.00000
  47        2S          0.00000   0.00000   0.00000   0.00000   0.00000
  48        2PX         0.00000   0.00000   0.00000   0.00000   0.00000
  49        2PY         0.00000   0.00000   0.00000   0.00000   0.00000
  50        2PZ         0.16547  -0.02840  -0.20054  -0.12969   0.07087
  51 11  C  1S          0.00000   0.00000   0.00000   0.00000   0.00000
  52        2S          0.00000   0.00000   0.00000   0.00000   0.00000
  53        2PX         0.00000   0.00000   0.00000   0.00000   0.00000
  54        2PY         0.00000   0.00000   0.00000   0.00000   0.00000
  55        2PZ        -0.29347  -0.05310   0.44265   0.32551   0.19043
  56 12  F  1S          0.00000   0.00000   0.00000   0.00000   0.00000
  57        2S          0.00000   0.00000   0.00000   0.00000   0.00000
  58        2PX         0.00000   0.00000   0.00000   0.00000   0.00000
  59        2PY         0.00000   0.00000   0.00000   0.00000   0.00000
  60        2PZ         0.16547   0.02840   0.20054  -0.12969   0.07087
  61 13  C  1S          0.00000   0.00000   0.00000   0.00000   0.00000
  62        2S          0.00000   0.00000   0.00000   0.00000   0.00000
  63        2PX         0.00000   0.00000   0.00000   0.00000   0.00000
  64        2PY         0.00000   0.00000   0.00000   0.00000   0.00000
  65        2PZ        -0.10056   0.42247   0.20899  -0.31956  -0.21825
  66 14  C  1S          0.00000   0.00000   0.00000   0.00000   0.00000
  67        2S          0.00000   0.00000   0.00000   0.00000   0.00000
  68        2PX         0.00000   0.00000   0.00000   0.00000   0.00000
  69        2PY         0.00000   0.00000   0.00000   0.00000   0.00000
  70        2PZ         0.43114  -0.00000   0.00000   0.46292  -0.32188
  71 15  F  1S          0.00000   0.00000   0.00000   0.00000   0.00000
  72        2S          0.00000   0.00000   0.00000   0.00000   0.00000
  73        2PX         0.00000   0.00000   0.00000   0.00000   0.00000
  74        2PY         0.00000   0.00000   0.00000   0.00000   0.00000
  75        2PZ        -0.24170  -0.00000  -0.00000  -0.18294   0.12096
  76 16  C  1S          0.00000   0.00000   0.00000   0.00000   0.00000
  77        2S          0.00000   0.00000   0.00000   0.00000   0.00000
  78        2PX         0.00000   0.00000   0.00000   0.00000   0.00000
  79        2PY         0.00000   0.00000   0.00000   0.00000   0.00000
  80        2PZ        -0.10056  -0.42247   0.20899  -0.31956   0.21825
  81 17  C  1S          0.00000   0.00000   0.00000   0.00000   0.00000
  82        2S          0.00000   0.00000   0.00000   0.00000   0.00000
  83        2PX         0.00000   0.00000   0.00000   0.00000   0.00000
  84        2PY         0.00000   0.00000   0.00000   0.00000   0.00000
  85        2PZ         0.22444   0.34578   0.23291  -0.13851  -0.44343
  86 18  F  1S          0.00000   0.00000   0.00000   0.00000   0.00000
  87        2S          0.00000   0.00000   0.00000   0.00000   0.00000
  88        2PX         0.00000   0.00000   0.00000   0.00000   0.00000
  89        2PY         0.00000   0.00000   0.00000   0.00000   0.00000
  90        2PZ        -0.12996  -0.17108  -0.10579   0.05380   0.17136
  91 19  C  1S          0.00000   0.00000   0.00000   0.00000   0.00000
  92        2S          0.00000   0.00000   0.00000   0.00000   0.00000
  93        2PX         0.00000   0.00000   0.00000   0.00000   0.00000
  94        2PY         0.00000   0.00000   0.00000   0.00000   0.00000
  95        2PZ         0.22444  -0.34578   0.23291  -0.13851   0.44343
  96 20  F  1S          0.00000   0.00000   0.00000   0.00000   0.00000
  97        2S          0.00000   0.00000   0.00000   0.00000   0.00000
  98        2PX         0.00000   0.00000   0.00000   0.00000   0.00000
  99        2PY         0.00000   0.00000   0.00000   0.00000   0.00000
 100        2PZ        -0.12996   0.17108  -0.10579   0.05380  -0.17136
 101 21  C  1S          0.00000   0.00000   0.00000   0.00000   0.00000
 102        2S          0.00000   0.00000   0.00000   0.00000   0.00000
 103        2PX         0.00000   0.00000   0.00000   0.00000   0.00000
 104        2PY         0.00000   0.00000   0.00000   0.00000   0.00000
 105        2PZ        -0.29347   0.05310  -0.44265   0.32551   0.19043
 106 22  F  1S          0.00000   0.00000   0.00000   0.00000   0.00000
 107        2S          0.00000   0.00000   0.00000   0.00000   0.00000
 108        2PX         0.00000   0.00000   0.00000   0.00000   0.00000
 109        2PY         0.00000   0.00000   0.00000   0.00000   0.00000
 110        2PZ         0.16547  -0.02840   0.20054  -0.12969  -0.07087
 111 23  C  1S          0.00000   0.00000   0.00000   0.00000   0.00000
 112        2S          0.00000   0.00000   0.00000   0.00000   0.00000
 113        2PX         0.00000   0.00000   0.00000   0.00000   0.00000
 114        2PY         0.00000   0.00000   0.00000   0.00000   0.00000
 115        2PZ        -0.29347  -0.05310  -0.44265   0.32551  -0.19043
 116 24  F  1S          0.00000   0.00000   0.00000   0.00000   0.00000
 117        2S          0.00000   0.00000   0.00000   0.00000   0.00000
 118        2PX         0.00000   0.00000   0.00000   0.00000   0.00000
 119        2PY         0.00000   0.00000   0.00000   0.00000   0.00000
 120        2PZ         0.16547   0.02840  -0.20054  -0.12969  -0.07087
     Density Matrix:
                           1         2         3         4         5
   1 1   C  1S          2.06446
   2        2S         -0.19833   0.83459
   3        2PX        -0.00031   0.00395   0.58995
   4        2PY         0.00013   0.00384   0.00307   0.58904
   5        2PZ         0.00000  -0.00000  -0.00000  -0.00000   0.87607
   6 2   C  1S         -0.00546   0.01878   0.02551  -0.00874  -0.00000
   7        2S          0.01699  -0.04916  -0.08702   0.03906   0.00000
   8        2PX        -0.01331   0.05445   0.04005  -0.00777  -0.00000
   9        2PY         0.01289  -0.04461  -0.05104   0.03170   0.00000
  10        2PZ         0.00000  -0.00000  -0.00000   0.00000  -0.08136
  11 3   F  1S          0.00075  -0.00092  -0.00471   0.00186   0.00000
  12        2S         -0.00311   0.00239   0.02360  -0.00874  -0.00000
  13        2PX         0.01805  -0.07082  -0.09964   0.00309   0.00000
  14        2PY        -0.01268   0.06161   0.05444   0.00503  -0.00000
  15        2PZ        -0.00000   0.00000   0.00000  -0.00000  -0.00977
  16 4   C  1S          0.02338  -0.06271  -0.10951  -0.00134   0.00000
  17        2S         -0.06271   0.08822   0.28362   0.00438  -0.00000
  18        2PX         0.10951  -0.28362  -0.46492  -0.00418   0.00000
  19        2PY        -0.00134   0.00438   0.00418   0.02519  -0.00000
  20        2PZ        -0.00000   0.00000   0.00000   0.00000   0.33599
  21 5   C  1S         -0.00261   0.00693   0.00744   0.00631  -0.00000
  22        2S          0.00700  -0.01451  -0.02801  -0.01929   0.00000
  23        2PX        -0.00238   0.00605  -0.00880   0.01895   0.00000
  24        2PY        -0.00856   0.03039   0.02564   0.01767  -0.00000
  25        2PZ         0.00000  -0.00000   0.00000  -0.00000  -0.18743
  26 6   F  1S         -0.00025   0.00170  -0.00028   0.00053   0.00000
  27        2S          0.00182  -0.01032   0.00044  -0.00488  -0.00000
  28        2PX         0.00017   0.00080   0.00668  -0.00676  -0.00000
  29        2PY         0.00312  -0.01035  -0.01888  -0.00206   0.00000
  30        2PZ        -0.00000  -0.00000  -0.00000   0.00000   0.13490
  31 7   C  1S         -0.00713   0.02621  -0.00526   0.03182   0.00000
  32        2S          0.02378  -0.08128   0.01117  -0.11785  -0.00000
  33        2PX        -0.00536   0.01659   0.00060   0.04041  -0.00000
  34        2PY        -0.02365   0.09663  -0.02324   0.08827   0.00000
  35        2PZ         0.00000  -0.00000  -0.00000  -0.00000  -0.06032
  36 8   F  1S          0.00063  -0.00029  -0.00032  -0.00428   0.00000
  37        2S         -0.00246  -0.00083   0.00142   0.02096  -0.00000
  38        2PX         0.00227  -0.02025   0.01416  -0.00289  -0.00000
  39        2PY         0.02121  -0.09152   0.04403  -0.09431  -0.00000
  40        2PZ        -0.00000   0.00000  -0.00000   0.00000  -0.03118
  41 9   C  1S         -0.00559   0.01959   0.02515   0.01074  -0.00000
  42        2S          0.01788  -0.05430  -0.08666  -0.04669   0.00000
  43        2PX        -0.01289   0.05308   0.03867   0.00971  -0.00000
  44        2PY        -0.01184   0.04143   0.05660   0.02896  -0.00000
  45        2PZ         0.00000  -0.00000  -0.00000  -0.00000  -0.08631
  46 10  F  1S          0.00067  -0.00069  -0.00412  -0.00206   0.00000
  47        2S         -0.00278   0.00160   0.02063   0.00993  -0.00000
  48        2PX         0.01761  -0.06899  -0.09233  -0.00985   0.00000
  49        2PY         0.01132  -0.05447  -0.05687   0.00625   0.00000
  50        2PZ        -0.00000   0.00000   0.00000   0.00000   0.00886
  51 11  C  1S          0.02571  -0.06838   0.06079  -0.10124  -0.00000
  52        2S         -0.06922   0.10119  -0.15845   0.26341   0.00000
  53        2PX        -0.04660   0.11028  -0.05629   0.17354   0.00000
  54        2PY         0.09500  -0.23192   0.19880  -0.33100  -0.00000
  55        2PZ         0.00000  -0.00000   0.00000  -0.00000   0.34559
  56 12  F  1S          0.00002  -0.00018  -0.00003  -0.00004   0.00000
  57        2S         -0.00019   0.00124   0.00013  -0.00003  -0.00000
  58        2PX        -0.00012   0.00070  -0.00121  -0.00202   0.00000
  59        2PY         0.00128  -0.00638  -0.00240   0.00351   0.00000
  60        2PZ         0.00000  -0.00000   0.00000   0.00000  -0.01587
  61 13  C  1S         -0.00298   0.00906   0.00528  -0.00872  -0.00000
  62        2S          0.00906  -0.02525  -0.02022   0.03054   0.00000
  63        2PX        -0.00528   0.02022  -0.01452  -0.03096   0.00000
  64        2PY         0.00872  -0.03054  -0.03096   0.01640   0.00000
  65        2PZ         0.00000  -0.00000   0.00000   0.00000  -0.18189
  66 14  C  1S          0.02685  -0.07098   0.06078   0.10403  -0.00000
  67        2S         -0.07154   0.10055  -0.15376  -0.26447   0.00000
  68        2PX        -0.04957   0.11902  -0.05882  -0.18546   0.00000
  69        2PY        -0.09718   0.22957  -0.19899  -0.32704   0.00000
  70        2PZ         0.00000  -0.00000   0.00000   0.00000   0.41938
  71 15  F  1S         -0.00189   0.00364  -0.01379  -0.00068   0.00000
  72        2S          0.00680  -0.00593   0.05925   0.00112  -0.00000
  73        2PX         0.02599  -0.09171   0.09713   0.07946  -0.00000
  74        2PY         0.04337  -0.21842   0.08312   0.16716  -0.00000
  75        2PZ        -0.00000   0.00000  -0.00000  -0.00000  -0.28317
  76 16  C  1S         -0.00633   0.02215  -0.00304  -0.02721   0.00000
  77        2S          0.02215  -0.07263   0.00559   0.10731  -0.00000
  78        2PX        -0.00304   0.00559   0.00191  -0.02976  -0.00000
  79        2PY         0.02721  -0.10731   0.02976   0.10558  -0.00000
  80        2PZ         0.00000  -0.00000  -0.00000   0.00000  -0.05527
  81 17  C  1S         -0.00141   0.00577  -0.00262  -0.00619   0.00000
  82        2S          0.00537  -0.02094   0.00933   0.02532  -0.00000
  83        2PX        -0.00267   0.01038  -0.00476  -0.01345   0.00000
  84        2PY         0.00413  -0.01848   0.00875   0.01572  -0.00000
  85        2PZ         0.00000  -0.00000   0.00000   0.00000  -0.01098
  86 18  F  1S          0.00015  -0.00046   0.00018   0.00096  -0.00000
  87        2S         -0.00081   0.00229  -0.00088  -0.00526   0.00000
  88        2PX         0.00071  -0.00477   0.00337   0.00124  -0.00000
  89        2PY        -0.00479   0.02128  -0.01089  -0.02113   0.00000
  90        2PZ        -0.00000   0.00000  -0.00000  -0.00000   0.01542
  91 19  C  1S         -0.00026   0.00088   0.00135  -0.00046  -0.00000
  92        2S          0.00088  -0.00268  -0.00504   0.00172   0.00000
  93        2PX        -0.00003  -0.00047  -0.00178  -0.00217   0.00000
  94        2PY         0.00103  -0.00445  -0.00368   0.00114   0.00000
  95        2PZ         0.00000   0.00000   0.00000   0.00000   0.11818
  96 20  F  1S         -0.00003   0.00017  -0.00016  -0.00009   0.00000
  97        2S          0.00017  -0.00102   0.00085   0.00058  -0.00000
  98        2PX        -0.00021   0.00153   0.00108   0.00077  -0.00000
  99        2PY        -0.00076   0.00305   0.00542  -0.00011  -0.00000
 100        2PZ         0.00000  -0.00000  -0.00000  -0.00000  -0.08726
 101 21  C  1S          0.00304  -0.01155   0.00512   0.01323  -0.00000
 102        2S         -0.01188   0.04188  -0.01956  -0.05637   0.00000
 103        2PX        -0.00485   0.01718  -0.00691  -0.02702   0.00000
 104        2PY        -0.01305   0.05325  -0.02571  -0.05474   0.00000
 105        2PZ         0.00000  -0.00000   0.00000   0.00000  -0.12506
 106 22  F  1S         -0.00001   0.00038  -0.00021   0.00017   0.00000
 107        2S          0.00014  -0.00196   0.00126  -0.00084  -0.00000
 108        2PX        -0.00108   0.00192   0.00006  -0.00664  -0.00000
 109        2PY         0.00303  -0.01603   0.00868   0.00914  -0.00000
 110        2PZ         0.00000  -0.00000  -0.00000   0.00000   0.08470
 111 23  C  1S          0.00034  -0.00080  -0.00207   0.00072   0.00000
 112        2S         -0.00029  -0.00117   0.00725   0.00032  -0.00000
 113        2PX         0.00104  -0.00385  -0.00353   0.00228   0.00000
 114        2PY        -0.00160   0.00511   0.01085  -0.00187  -0.00000
 115        2PZ        -0.00000   0.00000   0.00000  -0.00000   0.05290
 116 24  F  1S         -0.00141   0.00187  -0.01262  -0.00021   0.00000
 117        2S          0.00427   0.00143   0.05333   0.00299  -0.00000
 118        2PX         0.02138  -0.06914   0.09027  -0.06434  -0.00000
 119        2PY        -0.04585   0.22845  -0.09660   0.18190   0.00000
 120        2PZ        -0.00000   0.00000  -0.00000   0.00000  -0.23742
                           6         7         8         9        10
   6 2   C  1S          2.06565
   7        2S         -0.21160   0.87184
   8        2PX         0.01578  -0.01301   0.49390
   9        2PY        -0.00000   0.00000   0.00000   0.62469
  10        2PZ        -0.00000   0.00000  -0.00000  -0.00000   0.90554
  11 3   F  1S          0.00230   0.01492  -0.01466   0.00000   0.00000
  12        2S          0.01733  -0.18276  -0.05865   0.00000   0.00000
  13        2PX         0.12162  -0.40317  -0.62805   0.00000   0.00000
  14        2PY        -0.00000   0.00000   0.00000   0.16810  -0.00000
  15        2PZ        -0.00000   0.00000   0.00000  -0.00000   0.27381
  16 4   C  1S          0.02685  -0.07154   0.04957  -0.09718  -0.00000
  17        2S         -0.07098   0.10055  -0.11902   0.22957   0.00000
  18        2PX        -0.06078   0.15376  -0.05882   0.19899   0.00000
  19        2PY         0.10403  -0.26447   0.18546  -0.32704  -0.00000
  20        2PZ         0.00000  -0.00000   0.00000  -0.00000   0.41938
  21 5   C  1S          0.00350  -0.01364   0.00621  -0.01478  -0.00000
  22        2S         -0.01272   0.04571  -0.02093   0.05711   0.00000
  23        2PX        -0.00592   0.02228  -0.00997   0.02943   0.00000
  24        2PY         0.01102  -0.04660   0.02320  -0.04206  -0.00000
  25        2PZ         0.00000  -0.00000   0.00000  -0.00000  -0.17127
  26 6   F  1S         -0.00026   0.00047  -0.00008   0.00161   0.00000
  27        2S          0.00129  -0.00214   0.00009  -0.00878  -0.00000
  28        2PX         0.00143  -0.01035   0.00859  -0.00315  -0.00000
  29        2PY        -0.00960   0.04281  -0.02658   0.04289   0.00000
  30        2PZ        -0.00000   0.00000  -0.00000   0.00000   0.12105
  31 7   C  1S          0.00014   0.00081   0.00031   0.00020  -0.00000
  32        2S         -0.00008  -0.00537  -0.00082  -0.00226   0.00000
  33        2PX        -0.00082   0.00129   0.00070   0.00702  -0.00000
  34        2PY         0.00146  -0.00311   0.00354  -0.00206  -0.00000
  35        2PZ         0.00000  -0.00000  -0.00000  -0.00000   0.04105
  36 8   F  1S          0.00020  -0.00102   0.00034  -0.00088  -0.00000
  37        2S         -0.00115   0.00533  -0.00185   0.00481   0.00000
  38        2PX        -0.00012   0.00143  -0.00052  -0.00113   0.00000
  39        2PY         0.00088  -0.00540   0.00082  -0.00598  -0.00000
  40        2PZ         0.00000  -0.00000   0.00000   0.00000   0.00302
  41 9   C  1S         -0.00434   0.01600  -0.00305   0.02115   0.00000
  42        2S          0.01636  -0.05441   0.00375  -0.08899  -0.00000
  43        2PX        -0.00300   0.00257  -0.00767   0.03285   0.00000
  44        2PY        -0.02128   0.08759  -0.03452   0.09424   0.00000
  45        2PZ         0.00000  -0.00000   0.00000  -0.00000  -0.10888
  46 10  F  1S         -0.00017  -0.00126  -0.00025   0.00114   0.00000
  47        2S          0.00027   0.00646   0.00237  -0.00510  -0.00000
  48        2PX        -0.01156   0.04281  -0.01049   0.04837   0.00000
  49        2PY         0.00080  -0.00919   0.00679  -0.00029  -0.00000
  50        2PZ         0.00000  -0.00000   0.00000  -0.00000  -0.00743
  51 11  C  1S          0.00362  -0.01290   0.00655  -0.01296  -0.00000
  52        2S         -0.01304   0.04284  -0.02710   0.04922   0.00000
  53        2PX        -0.00588   0.02441  -0.00340   0.02230   0.00000
  54        2PY         0.01189  -0.04366   0.02122  -0.04569  -0.00000
  55        2PZ         0.00000  -0.00000   0.00000  -0.00000   0.06073
  56 12  F  1S         -0.00017  -0.00126  -0.00025  -0.00114   0.00000
  57        2S          0.00027   0.00646   0.00237   0.00510  -0.00000
  58        2PX        -0.01156   0.04281  -0.01049  -0.04837   0.00000
  59        2PY        -0.00080   0.00919  -0.00679  -0.00029   0.00000
  60        2PZ         0.00000  -0.00000   0.00000   0.00000  -0.00743
  61 13  C  1S          0.02685  -0.07154   0.04957   0.09718  -0.00000
  62        2S         -0.07098   0.10055  -0.11902  -0.22957   0.00000
  63        2PX        -0.06078   0.15376  -0.05882  -0.19899   0.00000
  64        2PY        -0.10403   0.26447  -0.18546  -0.32704   0.00000
  65        2PZ         0.00000  -0.00000   0.00000   0.00000   0.41938
  66 14  C  1S         -0.00435   0.01460  -0.01249  -0.00000   0.00000
  67        2S          0.01460  -0.04796   0.04498   0.00000  -0.00000
  68        2PX         0.01249  -0.04498   0.03669  -0.00000  -0.00000
  69        2PY         0.00000  -0.00000  -0.00000  -0.04848   0.00000
  70        2PZ        -0.00000   0.00000  -0.00000   0.00000  -0.29814
  71 15  F  1S         -0.00026   0.00140  -0.00001  -0.00000   0.00000
  72        2S          0.00188  -0.00885   0.00233   0.00000  -0.00000
  73        2PX        -0.00189   0.00783  -0.01565   0.00000   0.00000
  74        2PY         0.00000  -0.00000   0.00000   0.01880  -0.00000
  75        2PZ         0.00000  -0.00000   0.00000  -0.00000   0.21197
  76 16  C  1S         -0.00546   0.01699  -0.01331  -0.01289   0.00000
  77        2S          0.01878  -0.04916   0.05445   0.04461  -0.00000
  78        2PX         0.02551  -0.08702   0.04005   0.05104  -0.00000
  79        2PY         0.00874  -0.03906   0.00777   0.03170  -0.00000
  80        2PZ        -0.00000   0.00000  -0.00000  -0.00000  -0.08136
  81 17  C  1S          0.00014   0.00081   0.00031  -0.00020  -0.00000
  82        2S         -0.00008  -0.00537  -0.00082   0.00226   0.00000
  83        2PX        -0.00082   0.00129   0.00070  -0.00702  -0.00000
  84        2PY        -0.00146   0.00311  -0.00354  -0.00206   0.00000
  85        2PZ         0.00000  -0.00000  -0.00000   0.00000   0.04105
  86 18  F  1S          0.00020  -0.00102   0.00034   0.00088  -0.00000
  87        2S         -0.00115   0.00533  -0.00185  -0.00481   0.00000
  88        2PX        -0.00012   0.00143  -0.00052   0.00113   0.00000
  89        2PY        -0.00088   0.00540  -0.00082  -0.00598   0.00000
  90        2PZ         0.00000  -0.00000   0.00000  -0.00000   0.00302
  91 19  C  1S          0.00350  -0.01364   0.00621   0.01478  -0.00000
  92        2S         -0.01272   0.04571  -0.02093  -0.05711   0.00000
  93        2PX        -0.00592   0.02228  -0.00997  -0.02943   0.00000
  94        2PY        -0.01102   0.04660  -0.02320  -0.04206   0.00000
  95        2PZ         0.00000  -0.00000   0.00000   0.00000  -0.17127
  96 20  F  1S         -0.00026   0.00047  -0.00008  -0.00161   0.00000
  97        2S          0.00129  -0.00214   0.00009   0.00878  -0.00000
  98        2PX         0.00143  -0.01035   0.00859   0.00315  -0.00000
  99        2PY         0.00960  -0.04281   0.02658   0.04289  -0.00000
 100        2PZ        -0.00000   0.00000  -0.00000  -0.00000   0.12105
 101 21  C  1S          0.00362  -0.01290   0.00655   0.01296  -0.00000
 102        2S         -0.01304   0.04284  -0.02710  -0.04922   0.00000
 103        2PX        -0.00588   0.02441  -0.00340  -0.02230   0.00000
 104        2PY        -0.01189   0.04366  -0.02122  -0.04569   0.00000
 105        2PZ         0.00000  -0.00000   0.00000   0.00000   0.06073
 106 22  F  1S         -0.00032   0.00063  -0.00121  -0.00079   0.00000
 107        2S          0.00163  -0.00310   0.00678   0.00415  -0.00000
 108        2PX         0.00835  -0.03175   0.01210   0.02628  -0.00000
 109        2PY         0.00727  -0.03243   0.00193   0.02572  -0.00000
 110        2PZ        -0.00000   0.00000  -0.00000  -0.00000  -0.04413
 111 23  C  1S         -0.00434   0.01600  -0.00305  -0.02115   0.00000
 112        2S          0.01636  -0.05441   0.00375   0.08899  -0.00000
 113        2PX        -0.00300   0.00257  -0.00767  -0.03285   0.00000
 114        2PY         0.02128  -0.08759   0.03452   0.09424  -0.00000
 115        2PZ         0.00000  -0.00000   0.00000   0.00000  -0.10888
 116 24  F  1S         -0.00032   0.00063  -0.00121   0.00079   0.00000
 117        2S          0.00163  -0.00310   0.00678  -0.00415  -0.00000
 118        2PX         0.00835  -0.03175   0.01210  -0.02628  -0.00000
 119        2PY        -0.00727   0.03243  -0.00193   0.02572   0.00000
 120        2PZ        -0.00000   0.00000  -0.00000   0.00000  -0.04413
                          11        12        13        14        15
  11 3   F  1S          2.11714
  12        2S         -0.49610   2.13988
  13        2PX        -0.07119   0.38721   1.06807
  14        2PY         0.00000  -0.00000   0.00000   1.94442
  15        2PZ         0.00000  -0.00000  -0.00000  -0.00000   1.79481
  16 4   C  1S         -0.00189   0.00680  -0.02599   0.04337   0.00000
  17        2S          0.00364  -0.00593   0.09171  -0.21842  -0.00000
  18        2PX         0.01379  -0.05925   0.09713  -0.08312  -0.00000
  19        2PY        -0.00068   0.00112  -0.07946   0.16716   0.00000
  20        2PZ        -0.00000   0.00000  -0.00000   0.00000  -0.28317
  21 5   C  1S          0.00006  -0.00016   0.00142   0.00211  -0.00000
  22        2S          0.00013  -0.00107  -0.00242  -0.01000   0.00000
  23        2PX         0.00004  -0.00050  -0.00071  -0.00651   0.00000
  24        2PY         0.00031  -0.00127   0.00606   0.00056  -0.00000
  25        2PZ        -0.00000   0.00000   0.00000   0.00000   0.11415
  26 6   F  1S          0.00002  -0.00010   0.00002  -0.00062  -0.00000
  27        2S         -0.00010   0.00063  -0.00032   0.00376   0.00000
  28        2PX         0.00042  -0.00235   0.00464  -0.00249  -0.00000
  29        2PY        -0.00067   0.00356  -0.00877  -0.00776   0.00000
  30        2PZ        -0.00000   0.00000  -0.00000   0.00000  -0.07000
  31 7   C  1S         -0.00002   0.00007  -0.00087   0.00072   0.00000
  32        2S          0.00002   0.00012   0.00402  -0.00375  -0.00000
  33        2PX         0.00013  -0.00079  -0.00008  -0.00122   0.00000
  34        2PY        -0.00012   0.00037  -0.00258   0.00195   0.00000
  35        2PZ        -0.00000   0.00000   0.00000   0.00000   0.00199
  36 8   F  1S         -0.00001   0.00008  -0.00004   0.00004   0.00000
  37        2S          0.00008  -0.00044   0.00024  -0.00027  -0.00000
  38        2PX         0.00003  -0.00013  -0.00010   0.00091   0.00000
  39        2PY        -0.00003   0.00026   0.00154  -0.00091  -0.00000
  40        2PZ        -0.00000   0.00000   0.00000  -0.00000  -0.01629
  41 9   C  1S         -0.00024   0.00057  -0.01223   0.00013   0.00000
  42        2S         -0.00099   0.00556   0.04558   0.00411  -0.00000
  43        2PX        -0.00026   0.00193  -0.00933   0.00123   0.00000
  44        2PY        -0.00139   0.00636  -0.05142   0.00020   0.00000
  45        2PZ         0.00000  -0.00000   0.00000  -0.00000  -0.00920
  46 10  F  1S         -0.00024   0.00096   0.00073   0.00153  -0.00000
  47        2S          0.00096  -0.00395  -0.00539  -0.00616   0.00000
  48        2PX         0.00044  -0.00414   0.02230  -0.00265  -0.00000
  49        2PY        -0.00108   0.00346   0.01033   0.01075  -0.00000
  50        2PZ        -0.00000   0.00000  -0.00000   0.00000   0.03044
  51 11  C  1S         -0.00031   0.00158  -0.00844   0.00770   0.00000
  52        2S          0.00063  -0.00305   0.03261  -0.03508  -0.00000
  53        2PX         0.00114  -0.00639   0.00987  -0.00226  -0.00000
  54        2PY        -0.00084   0.00444  -0.02775   0.02568   0.00000
  55        2PZ        -0.00000   0.00000  -0.00000   0.00000  -0.04311
  56 12  F  1S         -0.00024   0.00096   0.00073  -0.00153  -0.00000
  57        2S          0.00096  -0.00395  -0.00539   0.00616   0.00000
  58        2PX         0.00044  -0.00414   0.02230   0.00265  -0.00000
  59        2PY         0.00108  -0.00346  -0.01033   0.01075   0.00000
  60        2PZ        -0.00000   0.00000  -0.00000  -0.00000   0.03044
  61 13  C  1S         -0.00189   0.00680  -0.02599  -0.04337   0.00000
  62        2S          0.00364  -0.00593   0.09171   0.21842  -0.00000
  63        2PX         0.01379  -0.05925   0.09713   0.08312  -0.00000
  64        2PY         0.00068  -0.00112   0.07946   0.16716  -0.00000
  65        2PZ        -0.00000   0.00000  -0.00000  -0.00000  -0.28317
  66 14  C  1S         -0.00026   0.00188   0.00189  -0.00000  -0.00000
  67        2S          0.00140  -0.00885  -0.00783   0.00000   0.00000
  68        2PX         0.00001  -0.00233  -0.01565   0.00000   0.00000
  69        2PY         0.00000  -0.00000   0.00000   0.01880  -0.00000
  70        2PZ        -0.00000   0.00000   0.00000  -0.00000   0.21197
  71 15  F  1S          0.00013  -0.00066   0.00173  -0.00000  -0.00000
  72        2S         -0.00066   0.00319  -0.00952  -0.00000   0.00000
  73        2PX        -0.00173   0.00952  -0.01923  -0.00000   0.00000
  74        2PY         0.00000   0.00000  -0.00000  -0.00142   0.00000
  75        2PZ         0.00000  -0.00000   0.00000   0.00000  -0.12913
  76 16  C  1S          0.00075  -0.00311   0.01805   0.01268  -0.00000
  77        2S         -0.00092   0.00239  -0.07082  -0.06161   0.00000
  78        2PX        -0.00471   0.02360  -0.09964  -0.05444   0.00000
  79        2PY        -0.00186   0.00874  -0.00309   0.00503   0.00000
  80        2PZ         0.00000  -0.00000   0.00000   0.00000  -0.00977
  81 17  C  1S         -0.00002   0.00007  -0.00087  -0.00072   0.00000
  82        2S          0.00002   0.00012   0.00402   0.00375  -0.00000
  83        2PX         0.00013  -0.00079  -0.00008   0.00122   0.00000
  84        2PY         0.00012  -0.00037   0.00258   0.00195  -0.00000
  85        2PZ        -0.00000   0.00000   0.00000  -0.00000   0.00199
  86 18  F  1S         -0.00001   0.00008  -0.00004  -0.00004   0.00000
  87        2S          0.00008  -0.00044   0.00024   0.00027  -0.00000
  88        2PX         0.00003  -0.00013  -0.00010  -0.00091   0.00000
  89        2PY         0.00003  -0.00026  -0.00154  -0.00091   0.00000
  90        2PZ        -0.00000   0.00000   0.00000   0.00000  -0.01629
  91 19  C  1S          0.00006  -0.00016   0.00142  -0.00211  -0.00000
  92        2S          0.00013  -0.00107  -0.00242   0.01000   0.00000
  93        2PX         0.00004  -0.00050  -0.00071   0.00651   0.00000
  94        2PY        -0.00031   0.00127  -0.00606   0.00056   0.00000
  95        2PZ        -0.00000   0.00000   0.00000  -0.00000   0.11415
  96 20  F  1S          0.00002  -0.00010   0.00002   0.00062  -0.00000
  97        2S         -0.00010   0.00063  -0.00032  -0.00376   0.00000
  98        2PX         0.00042  -0.00235   0.00464   0.00249  -0.00000
  99        2PY         0.00067  -0.00356   0.00877  -0.00776  -0.00000
 100        2PZ        -0.00000   0.00000  -0.00000  -0.00000  -0.07000
 101 21  C  1S         -0.00031   0.00158  -0.00844  -0.00770   0.00000
 102        2S          0.00063  -0.00305   0.03261   0.03508  -0.00000
 103        2PX         0.00114  -0.00639   0.00987   0.00226  -0.00000
 104        2PY         0.00084  -0.00444   0.02775   0.02568  -0.00000
 105        2PZ        -0.00000   0.00000  -0.00000  -0.00000  -0.04311
 106 22  F  1S         -0.00002   0.00016   0.00118   0.00152  -0.00000
 107        2S          0.00016  -0.00118  -0.00639  -0.00876   0.00000
 108        2PX        -0.00109   0.00585  -0.02706  -0.02101   0.00000
 109        2PY        -0.00154   0.00892  -0.02233  -0.01093   0.00000
 110        2PZ         0.00000  -0.00000   0.00000   0.00000   0.03450
 111 23  C  1S         -0.00024   0.00057  -0.01223  -0.00013   0.00000
 112        2S         -0.00099   0.00556   0.04558  -0.00411  -0.00000
 113        2PX        -0.00026   0.00193  -0.00933  -0.00123   0.00000
 114        2PY         0.00139  -0.00636   0.05142   0.00020  -0.00000
 115        2PZ         0.00000  -0.00000   0.00000   0.00000  -0.00920
 116 24  F  1S         -0.00002   0.00016   0.00118  -0.00152  -0.00000
 117        2S          0.00016  -0.00118  -0.00639   0.00876   0.00000
 118        2PX        -0.00109   0.00585  -0.02706   0.02101   0.00000
 119        2PY         0.00154  -0.00892   0.02233  -0.01093  -0.00000
 120        2PZ         0.00000  -0.00000   0.00000  -0.00000   0.03450
                          16        17        18        19        20
  16 4   C  1S          2.06446
  17        2S         -0.19833   0.83459
  18        2PX         0.00031  -0.00395   0.58995
  19        2PY         0.00013   0.00384  -0.00307   0.58904
  20        2PZ        -0.00000   0.00000  -0.00000   0.00000   0.87607
  21 5   C  1S         -0.00713   0.02621   0.00526   0.03182  -0.00000
  22        2S          0.02378  -0.08128  -0.01117  -0.11785   0.00000
  23        2PX         0.00536  -0.01659   0.00060  -0.04041  -0.00000
  24        2PY        -0.02365   0.09663   0.02324   0.08827  -0.00000
  25        2PZ        -0.00000   0.00000  -0.00000   0.00000  -0.06032
  26 6   F  1S          0.00063  -0.00029   0.00032  -0.00428  -0.00000
  27        2S         -0.00246  -0.00083  -0.00142   0.02096   0.00000
  28        2PX        -0.00227   0.02025   0.01416   0.00289  -0.00000
  29        2PY         0.02121  -0.09152  -0.04403  -0.09431   0.00000
  30        2PZ         0.00000  -0.00000  -0.00000  -0.00000  -0.03118
  31 7   C  1S         -0.00261   0.00693  -0.00744   0.00631   0.00000
  32        2S          0.00700  -0.01451   0.02801  -0.01929  -0.00000
  33        2PX         0.00238  -0.00605  -0.00880  -0.01895   0.00000
  34        2PY        -0.00856   0.03039  -0.02564   0.01767   0.00000
  35        2PZ        -0.00000   0.00000   0.00000   0.00000  -0.18743
  36 8   F  1S         -0.00025   0.00170   0.00028   0.00053  -0.00000
  37        2S          0.00182  -0.01032  -0.00044  -0.00488   0.00000
  38        2PX        -0.00017  -0.00080   0.00668   0.00676  -0.00000
[...]
  63        2PX         0.92960
  64        2PY         0.92060
  65        2PZ         1.08387
  66 14  C  1S          1.99065
  67        2S          1.12394
  68        2PX         0.73658
  69        2PY         0.97203
  70        2PZ         1.10409
  71 15  F  1S          1.99893
  72        2S          1.95180
  73        2PX         1.30666
  74        2PY         1.95120
  75        2PZ         1.82428
  76 16  C  1S          1.98994
  77        2S          1.12352
  78        2PX         0.92960
  79        2PY         0.92060
  80        2PZ         1.08387
  81 17  C  1S          1.99055
  82        2S          1.11089
  83        2PX         0.91522
  84        2PY         0.80241
  85        2PZ         1.13986
  86 18  F  1S          1.99890
  87        2S          1.95112
  88        2PX         1.79696
  89        2PY         1.44332
  90        2PZ         1.84192
  91 19  C  1S          1.99055
  92        2S          1.11089
  93        2PX         0.91522
  94        2PY         0.80241
  95        2PZ         1.13986
  96 20  F  1S          1.99890
  97        2S          1.95112
  98        2PX         1.79696
  99        2PY         1.44333
 100        2PZ         1.84192
 101 21  C  1S          1.99058
 102        2S          1.11629
 103        2PX         0.74108
 104        2PY         0.96807
 105        2PZ         1.13154
 106 22  F  1S          1.99892
 107        2S          1.95154
 108        2PX         1.29971
 109        2PY         1.94488
 110        2PZ         1.83862
 111 23  C  1S          1.99058
 112        2S          1.11629
 113        2PX         0.74108
 114        2PY         0.96807
 115        2PZ         1.13154
 116 24  F  1S          1.99892
 117        2S          1.95154
 118        2PX         1.29971
 119        2PY         1.94488
 120        2PZ         1.83862
          Condensed to atoms (all electrons):
               1          2          3          4          5          6
     1  C    4.855601  -0.024943   0.000185   0.441685  -0.006179   0.000003
     2  C   -0.024943   4.856513   0.245422   0.470429   0.000739  -0.000000
     3  F    0.000185   0.245422   8.828171  -0.019898   0.000000   0.000000
     4  C    0.441685   0.470429  -0.019898   4.855601  -0.033976   0.000176
     5  C   -0.006179   0.000739   0.000000  -0.033976   4.920425   0.244860
     6  F    0.000003  -0.000000   0.000000   0.000176   0.244860   8.825008
     7  C   -0.033976   0.000015  -0.000000  -0.006179   0.428285  -0.018801
     8  F    0.000176   0.000000   0.000000   0.000003  -0.018800   0.000028
     9  C   -0.024703  -0.028516  -0.000575   0.444898   0.478092  -0.019223
    10  F    0.000156  -0.000439  -0.000076  -0.016620  -0.021652  -0.000005
    11  C    0.444898   0.000786  -0.000000  -0.024703  -0.033068   0.000176
    12  F   -0.000000  -0.000439  -0.000076  -0.000001  -0.000000   0.000000
    13  C   -0.006702   0.470429  -0.019898  -0.033344  -0.000007   0.000000
    14  C    0.470429  -0.010794   0.000006  -0.024943   0.000015   0.000000
    15  F   -0.019898   0.000006   0.000000   0.000185  -0.000000   0.000000
    16  C   -0.033344  -0.024943   0.000185  -0.006702  -0.000000   0.000000
    17  C   -0.000007   0.000015  -0.000000  -0.000000  -0.000000   0.000000
    18  F    0.000000   0.000000   0.000000   0.000000   0.000000   0.000000
    19  C   -0.000000   0.000739   0.000000  -0.000007  -0.000000   0.000000
    20  F    0.000000  -0.000000   0.000000   0.000000   0.000000   0.000000
    21  C    0.000755   0.000786  -0.000000   0.000023  -0.000000   0.000000
    22  F   -0.000001  -0.000000   0.000000  -0.000000  -0.000000   0.000000
    23  C    0.000023  -0.028516  -0.000575   0.000755   0.000000  -0.000000
    24  F   -0.016620  -0.000000   0.000000   0.000156   0.000192  -0.000000
               7          8          9         10         11         12
     1  C   -0.033976   0.000176  -0.024703   0.000156   0.444898  -0.000000
     2  C    0.000015   0.000000  -0.028516  -0.000439   0.000786  -0.000439
     3  F   -0.000000   0.000000  -0.000575  -0.000076  -0.000000  -0.000076
     4  C   -0.006179   0.000003   0.444898  -0.016620  -0.024703  -0.000001
     5  C    0.428285  -0.018800   0.478092  -0.021652  -0.033068  -0.000000
     6  F   -0.018801   0.000028  -0.019223  -0.000005   0.000176   0.000000
     7  C    4.920425   0.244860  -0.033068   0.000192   0.478092  -0.000000
     8  F    0.244860   8.825008   0.000176  -0.000000  -0.019223   0.000000
     9  C   -0.033068   0.000176   4.892556   0.244216  -0.007856   0.000000
    10  F    0.000192  -0.000000   0.244216   8.827900   0.000003  -0.000000
    11  C    0.478092  -0.019223  -0.007856   0.000003   4.892556   0.000000
    12  F   -0.000000   0.000000   0.000000  -0.000000   0.000000   8.827900
    13  C   -0.000000   0.000000   0.000755  -0.000001   0.000023  -0.016620
    14  C    0.000739  -0.000000   0.000786  -0.000000  -0.028516  -0.000000
    15  F    0.000000   0.000000  -0.000000   0.000000  -0.000575   0.000000
    16  C   -0.000007   0.000000   0.000023  -0.000000   0.000755   0.000156
    17  C   -0.000000   0.000000  -0.000000  -0.000000   0.000000   0.000192
    18  F    0.000000   0.000000   0.000000   0.000000  -0.000000  -0.000000
    19  C   -0.000000   0.000000   0.000000  -0.000000  -0.000000  -0.021652
    20  F    0.000000   0.000000  -0.000000   0.000000   0.000000  -0.000005
    21  C    0.000000  -0.000000   0.000000   0.000000  -0.000007   0.000003
    22  F   -0.000000   0.000000   0.000000   0.000000   0.000000   0.000000
    23  C   -0.000000   0.000000  -0.000007   0.000000   0.000000   0.244216
    24  F   -0.021652  -0.000005   0.000003   0.000000   0.244216   0.000000
              13         14         15         16         17         18
     1  C   -0.006702   0.470429  -0.019898  -0.033344  -0.000007   0.000000
     2  C    0.470429  -0.010794   0.000006  -0.024943   0.000015   0.000000
     3  F   -0.019898   0.000006   0.000000   0.000185  -0.000000   0.000000
     4  C   -0.033344  -0.024943   0.000185  -0.006702  -0.000000   0.000000
     5  C   -0.000007   0.000015  -0.000000  -0.000000  -0.000000   0.000000
     6  F    0.000000   0.000000   0.000000   0.000000   0.000000   0.000000
     7  C   -0.000000   0.000739   0.000000  -0.000007  -0.000000   0.000000
     8  F    0.000000  -0.000000   0.000000   0.000000   0.000000   0.000000
     9  C    0.000755   0.000786  -0.000000   0.000023  -0.000000   0.000000
    10  F   -0.000001  -0.000000   0.000000  -0.000000  -0.000000   0.000000
    11  C    0.000023  -0.028516  -0.000575   0.000755   0.000000  -0.000000
    12  F   -0.016620  -0.000000   0.000000   0.000156   0.000192  -0.000000
    13  C    4.855601  -0.024943   0.000185   0.441685  -0.006179   0.000003
    14  C   -0.024943   4.856513   0.245422   0.470429   0.000739  -0.000000
    15  F    0.000185   0.245422   8.828171  -0.019898   0.000000   0.000000
    16  C    0.441685   0.470429  -0.019898   4.855601  -0.033976   0.000176
    17  C   -0.006179   0.000739   0.000000  -0.033976   4.920425   0.244860
    18  F    0.000003  -0.000000   0.000000   0.000176   0.244860   8.825008
    19  C   -0.033976   0.000015  -0.000000  -0.006179   0.428285  -0.018801
    20  F    0.000176   0.000000   0.000000   0.000003  -0.018800   0.000028
    21  C   -0.024703  -0.028516  -0.000575   0.444898   0.478092  -0.019223
    22  F    0.000156  -0.000439  -0.000076  -0.016620  -0.021652  -0.000005
    23  C    0.444898   0.000786  -0.000000  -0.024703  -0.033068   0.000176
    24  F   -0.000000  -0.000439  -0.000076  -0.000001  -0.000000   0.000000
              19         20         21         22         23         24
     1  C   -0.000000   0.000000   0.000755  -0.000001   0.000023  -0.016620
     2  C    0.000739  -0.000000   0.000786  -0.000000  -0.028516  -0.000000
     3  F    0.000000   0.000000  -0.000000   0.000000  -0.000575   0.000000
     4  C   -0.000007   0.000000   0.000023  -0.000000   0.000755   0.000156
     5  C   -0.000000   0.000000  -0.000000  -0.000000   0.000000   0.000192
     6  F    0.000000   0.000000   0.000000   0.000000  -0.000000  -0.000000
     7  C   -0.000000   0.000000   0.000000  -0.000000  -0.000000  -0.021652
     8  F    0.000000   0.000000  -0.000000   0.000000   0.000000  -0.000005
     9  C    0.000000  -0.000000   0.000000   0.000000  -0.000007   0.000003
    10  F   -0.000000   0.000000   0.000000   0.000000   0.000000   0.000000
    11  C   -0.000000   0.000000  -0.000007   0.000000   0.000000   0.244216
    12  F   -0.021652  -0.000005   0.000003   0.000000   0.244216   0.000000
    13  C   -0.033976   0.000176  -0.024703   0.000156   0.444898  -0.000000
    14  C    0.000015   0.000000  -0.028516  -0.000439   0.000786  -0.000439
    15  F   -0.000000   0.000000  -0.000575  -0.000076  -0.000000  -0.000076
    16  C   -0.006179   0.000003   0.444898  -0.016620  -0.024703  -0.000001
    17  C    0.428285  -0.018800   0.478092  -0.021652  -0.033068  -0.000000
    18  F   -0.018801   0.000028  -0.019223  -0.000005   0.000176   0.000000
    19  C    4.920425   0.244860  -0.033068   0.000192   0.478092  -0.000000
    20  F    0.244860   8.825008   0.000176  -0.000000  -0.019223   0.000000
    21  C   -0.033068   0.000176   4.892556   0.244216  -0.007856   0.000000
    22  F    0.000192  -0.000000   0.244216   8.827900   0.000003  -0.000000
    23  C    0.478092  -0.019223  -0.007856   0.000003   4.892556   0.000000
    24  F   -0.000000   0.000000   0.000000  -0.000000   0.000000   8.827900
 Mulliken charges:
               1
     1  C   -0.047538
     2  C    0.072713
     3  F   -0.032872
     4  C   -0.047538
     5  C    0.041073
     6  F   -0.032223
     7  C    0.041073
     8  F   -0.032222
     9  C    0.052442
    10  F   -0.033675
    11  C    0.052442
    12  F   -0.033675
    13  C   -0.047538
    14  C    0.072713
    15  F   -0.032872
    16  C   -0.047538
    17  C    0.041073
    18  F   -0.032223
    19  C    0.041073
    20  F   -0.032222
    21  C    0.052442
    22  F   -0.033675
    23  C    0.052442
    24  F   -0.033675
 Sum of Mulliken charges =  -0.00000
 Mulliken charges with hydrogens summed into heavy atoms:
               1
     1  C   -0.047538
     2  C    0.072713
     3  F   -0.032872
     4  C   -0.047538
     5  C    0.041073
     6  F   -0.032223
     7  C    0.041073
     8  F   -0.032222
     9  C    0.052442
    10  F   -0.033675
    11  C    0.052442
    12  F   -0.033675
    13  C   -0.047538
    14  C    0.072713
    15  F   -0.032872
    16  C   -0.047538
    17  C    0.041073
    18  F   -0.032223
    19  C    0.041073
    20  F   -0.032222
    21  C    0.052442
    22  F   -0.033675
    23  C    0.052442
    24  F   -0.033675
 Electronic spatial extent (au):  <R**2>=           8013.6216
 Charge=             -0.0000 electrons
 Dipole moment (field-independent basis, Debye):
    X=             -0.0000    Y=             -0.0000    Z=              0.0000  Tot=              0.0000
 Quadrupole moment (field-independent basis, Debye-Ang):
   XX=           -110.4187   YY=           -106.6364   ZZ=           -109.2636
   XY=             -0.0000   XZ=              0.0000   YZ=              0.0000
 Traceless Quadrupole moment (field-independent basis, Debye-Ang):
   XX=             -1.6458   YY=              2.1365   ZZ=             -0.4907
   XY=             -0.0000   XZ=              0.0000   YZ=              0.0000
 Octapole moment (field-independent basis, Debye-Ang**2):
  XXX=              0.0000  YYY=              0.0000  ZZZ=              0.0000  XYY=              0.0000
  XXY=              0.0000  XXZ=              0.0000  XZZ=              0.0000  YZZ=              0.0000
  YYZ=              0.0000  XYZ=             -0.0000
 Hexadecapole moment (field-independent basis, Debye-Ang**3):
 XXXX=          -1814.1649 YYYY=          -5506.0016 ZZZZ=            -72.0617 XXXY=              0.0001
 XXXZ=              0.0000 YYYX=             -0.0000 YYYZ=              0.0000 ZZZX=              0.0000
 ZZZY=              0.0000 XXYY=          -1225.5303 XXZZ=           -304.6058 YYZZ=           -919.2109
 XXYZ=             -0.0000 YYXZ=              0.0000 ZZXY=              0.0000
 N-N= 2.130424988702D+03 E-N=-7.825501768271D+03  KE= 1.483726124322D+03
 Symmetry AG   KE= 7.022244861617D+02
 Symmetry BG   KE= 4.151843775622D+01
 Symmetry AU   KE= 3.737439704684D+01
 Symmetry BU   KE= 7.026088033571D+02
 There are a total of      195732 grid points.
 ElSum from          density=      174.0009319554
 ElSum from atomic densities=      174.0008601772
 Hirshfeld populations at iteration   1 (CA, CB, DipXYZ):
               1          2          3          4          5
     1  C    3.023656   3.023656  -0.015150   0.006557   0.000000
     2  C    2.958077   2.958077   0.212921   0.000000   0.000000
     3  F    4.523505   4.523505   0.054195   0.000000   0.000000
     4  C    3.023656   3.023656   0.015150   0.006557   0.000000
     5  C    2.969725   2.969725   0.103087   0.207313   0.000000
     6  F    4.524912   4.524912   0.027227   0.048152   0.000000
     7  C    2.969725   2.969725  -0.103087   0.207313   0.000000
     8  F    4.524912   4.524912  -0.027227   0.048152   0.000000
     9  C    2.965911   2.965911   0.223435   0.001115   0.000000
    10  F    4.525122   4.525122   0.055001   0.006565   0.000000
    11  C    2.965911   2.965911  -0.223435   0.001115   0.000000
    12  F    4.525122   4.525122   0.055001  -0.006565  -0.000000
    13  C    3.023656   3.023656   0.015150  -0.006557  -0.000000
    14  C    2.958077   2.958077  -0.212921  -0.000000   0.000000
    15  F    4.523505   4.523505  -0.054195  -0.000000   0.000000
    16  C    3.023656   3.023656  -0.015150  -0.006557   0.000000
    17  C    2.969725   2.969725  -0.103087  -0.207313   0.000000
    18  F    4.524912   4.524912  -0.027227  -0.048152   0.000000
    19  C    2.969725   2.969725   0.103087  -0.207313  -0.000000
    20  F    4.524912   4.524912   0.027227  -0.048152  -0.000000
    21  C    2.965911   2.965911  -0.223435  -0.001115   0.000000
    22  F    4.525122   4.525122  -0.055001  -0.006565   0.000000
    23  C    2.965911   2.965911   0.223435  -0.001115  -0.000000
    24  F    4.525122   4.525122  -0.055001   0.006565   0.000000
       Tot  87.000466  87.000466  -0.000000   0.000000   0.000000

 Dip from Atomic Chgs              0.000000   0.000000   0.000000
         Total Dipole              0.000000   0.000000   0.000000

 Hirshfeld charges, spin densities, dipoles, and CM5 charges using IRadAn=      4:
              Q-H        S-H        Dx         Dy         Dz        Q-CM5   
     1  C   -0.047312   0.000000  -0.015150   0.006557   0.000000  -0.044353
     2  C    0.083846   0.000000   0.212921   0.000000   0.000000   0.102937
     3  F   -0.047009   0.000000   0.054195   0.000000   0.000000  -0.069315
     4  C   -0.047312   0.000000   0.015150   0.006557   0.000000  -0.044353
     5  C    0.060550   0.000000   0.103087   0.207313   0.000000   0.082261
     6  F   -0.049824   0.000000   0.027227   0.048152   0.000000  -0.071471
     7  C    0.060550   0.000000  -0.103087   0.207313   0.000000   0.082261
     8  F   -0.049824   0.000000  -0.027227   0.048152   0.000000  -0.071471
     9  C    0.068178   0.000000   0.223435   0.001115   0.000000   0.088606
    10  F   -0.050244   0.000000   0.055001   0.006565   0.000000  -0.072087
    11  C    0.068178   0.000000  -0.223435   0.001115   0.000000   0.088606
    12  F   -0.050244   0.000000   0.055001  -0.006565  -0.000000  -0.072087
    13  C   -0.047312   0.000000   0.015150  -0.006557  -0.000000  -0.044353
    14  C    0.083846   0.000000  -0.212921  -0.000000   0.000000   0.102937
    15  F   -0.047009   0.000000  -0.054195  -0.000000   0.000000  -0.069315
    16  C   -0.047312   0.000000  -0.015150  -0.006557   0.000000  -0.044353
    17  C    0.060550   0.000000  -0.103087  -0.207313   0.000000   0.082261
    18  F   -0.049824   0.000000  -0.027227  -0.048152   0.000000  -0.071471
    19  C    0.060550   0.000000   0.103087  -0.207313  -0.000000   0.082261
    20  F   -0.049824   0.000000   0.027227  -0.048152  -0.000000  -0.071471
    21  C    0.068178   0.000000  -0.223435  -0.001115   0.000000   0.088606
    22  F   -0.050244   0.000000  -0.055001  -0.006565   0.000000  -0.072087
    23  C    0.068178   0.000000   0.223435  -0.001115  -0.000000   0.088606
    24  F   -0.050244   0.000000  -0.055001   0.006565   0.000000  -0.072087
       Tot  -0.000932   0.000000  -0.000000   0.000000   0.000000  -0.000932
 Hirshfeld charges with hydrogens summed into heavy atoms:
              Q-H       Q-CM5   
     1  C   -0.047312  -0.044353
     2  C    0.083846   0.102937
     3  F   -0.047009  -0.069315
     4  C   -0.047312  -0.044353
     5  C    0.060550   0.082261
     6  F   -0.049824  -0.071471
     7  C    0.060550   0.082261
     8  F   -0.049824  -0.071471
     9  C    0.068178   0.088606
    10  F   -0.050244  -0.072087
    11  C    0.068178   0.088606
    12  F   -0.050244  -0.072087
    13  C   -0.047312  -0.044353
    14  C    0.083846   0.102937
    15  F   -0.047009  -0.069315
    16  C   -0.047312  -0.044353
    17  C    0.060550   0.082261
    18  F   -0.049824  -0.071471
    19  C    0.060550   0.082261
    20  F   -0.049824  -0.071471
    21  C    0.068178   0.088606
    22  F   -0.050244  -0.072087
    23  C    0.068178   0.088606
    24  F   -0.050244  -0.072087
 
 EQQ=  0.00000000000     EQD=  0.00000000000     EDD= 0.180765739981E-01
 EQQ+QD+DD= 0.180765739981E-01
 
 Orbital energies and kinetic energies (alpha):
                                 1                 2
  83         (BG)--O          -0.127167          2.602375
  84         (AU)--O          -0.116832          2.811353
  85         (BG)--O          -0.106958          2.584006
  86         (AU)--O          -0.100619          2.520152
  87         (BG)--O          -0.057224          2.468718
  88         (AU)--V           0.017261          2.298309
  89         (AU)--V           0.051317          2.075239
  90         (BG)--V           0.077342          2.280187
  91         (AU)--V           0.124411          2.278791
  92         (BG)--V           0.126009          2.330720
 Total kinetic energy from orbitals= 1.483726124322D+03
 No NMR shielding tensors so no spin-rotation constants.
 Leave Link  601 at Thu Dec 26 17:08:22 2024, MaxMem=   104857600 cpu:              10.3 elap:               1.2
 (Enter /cm/shared/uniol/sw/SYSTEM/gaussian/g16.c01/g16/l9999.exe)

 Test job not archived.
 1\1\GINC-MPCS030\SP\RPBEPBE\STO-3G\C14F10\TOXO0610\26-Dec-2024\0\\#p p
 bepbe/STO-3G pop=regular scf=tight int=finegrid pop=Hirshfeld\\orbital
 s calculation\\0,1\C,0,-0.72891,-1.240989,0.\C,0,1.396875,0.,0.\F,0,2.
 747516,0.000001,0.\C,0,0.72891,-1.240989,0.\C,0,0.710999,-3.691678,0.\
 F,0,1.355858,-4.870119,0.\C,0,-0.710999,-3.691678,0.\F,0,-1.355859,-4.
 870118,0.\C,0,1.410584,-2.501018,0.\F,0,2.756722,-2.56251,0.\C,0,-1.41
 0584,-2.501018,0.\F,0,2.756722,2.562509,0.\C,0,0.72891,1.240989,0.\C,0
 ,-1.396875,0.,0.\F,0,-2.747516,-0.000001,0.\C,0,-0.72891,1.240989,0.\C
 ,0,-0.710999,3.691678,0.\F,0,-1.355858,4.870119,0.\C,0,0.710999,3.6916
 78,0.\F,0,1.355859,4.870118,0.\C,0,-1.410584,2.501018,0.\F,0,-2.756722
 ,2.56251,0.\C,0,1.410584,2.501018,0.\F,0,-2.756722,-2.562509,0.\\Versi
 on=ES64L-G16RevC.01\State=1-AG\HF=-1509.2958329\RMSD=4.869e-09\Dipole=
 0.,0.,0.\Quadrupole=-1.2235889,1.5884273,-0.3648384,0.000003,0.,0.\PG=
 C02H [SGH(C14F10)]\\@


 I DON'T PRETEND TO UNDERSTAND THE UNIVERSE --
 IT'S A GREAT DEAL BIGGER THAN I AM.
       -- ATTR. TO WILLIAM ALLINGHAM (1828-89)
 Job cpu time:       0 days  0 hours  0 minutes 44.4 seconds.
 Elapsed time:       0 days  0 hours  0 minutes  4.6 seconds.
 File lengths (MBytes):  RWF=    136 Int=      0 D2E=      0 Chk=     16 Scr=     16
 Normal termination of Gaussian 16 at Thu Dec 26 17:08:22 2024.
